! Touchstone file exported from HFSS 2024.2.0
!        File:           C:/Users/peter/Documents/Ansoft/Maybell_cavity/CavityFromMaybell.aedt
!        Generated:      10:44:04 AM May 31, 2025
!        Design:         LossyCase2
!        Project:        CavityFromMaybell
!        Setup:          Setup1
!        Solution:       MaybellSweep
!
! Variables:
!        $epsr = 5.5
!        $tandel = 0.003
!        a = 0.35in
!        d = 3.5in
!        epsr = 1
!        f0_ideal = 15.3934197621267GHz
!        iris_radius = 0.0705in
!        iris_width = 0.04in
!        rwg_a = 0.622in
!        rwg_b = 0.311in
!        rwg_length = 0.3in
!        tandel = 0
!        z1 = 0.5in
!        z2 = 0.55in
!
!Data is not renormalized
# GHz S MA
! Terminal data exported
! Port[1] = 1
! Port[2] = 2
15.33                          0.995817377873922 176.905366768679 0.00718155575153142 53.3506661837847 0.00718155575153143 53.3506661837847 0.992564678354458 176.608534119559 
15.33002                       0.995807160634637 176.905091661742 0.00719572948407811 53.2800169577193 0.00719572948407812 53.2800169577193 0.992542037607886 176.607929970306 
15.33004                       0.995796891918922 176.904816957792 0.0072099476848997 53.2090914105128 0.00720994768489971 53.2090914105127 0.992519282814354 176.607326699859 
15.33006                       0.995786571450847 176.904542670265 0.00722421048503637 53.1378881357489 0.00722421048503638 53.1378881357489 0.992496413361782 176.606724337999 
15.33008                       0.99577619895348 176.904268812779 0.00723851801516581 53.0664057194194 0.00723851801516582 53.0664057194193 0.992473428635872 176.606122914922 
15.3301                        0.995765774148903 176.903995399142 0.00725287040559344 52.9946427398555 0.00725287040559345 52.9946427398555 0.992450328020119 176.605522461241 
15.33012                       0.995755296758227 176.903722443349 0.00726726778622466 52.9225977677498 0.00726726778622467 52.9225977677497 0.992427110895851 176.604923007995 
15.33014                       0.995744766501595 176.90344995959  0.00728171028655866 52.8502693660663 0.00728171028655868 52.8502693660663 0.992403776642231 176.604324586645 
15.33016                       0.995734183098204 176.903177962246 0.00729619803565511 52.7776560900878 0.00729619803565512 52.7776560900878 0.992380324636318 176.603727229091 
15.33018                       0.995723546266298 176.902906465897 0.00731073116213157 52.7047564873051 0.00731073116213158 52.704756487305  0.992356754253046 176.603130967666 
15.3302                        0.995712855723207 176.90263548532  0.00732530979412752 52.6315690974736 0.00732530979412753 52.6315690974735 0.992333064865294 176.60253583515  
15.33022                       0.995702111185341 176.902365035493 0.00733993405929947 52.5580924525128 0.00733993405929948 52.5580924525128 0.992309255843894 176.601941864768 
15.33024                       0.995691312368203 176.902095131598 0.00735460408478768 52.4843250765456 0.00735460408478769 52.4843250765456 0.992285326557664 176.601349090201 
15.33026                       0.995680458986415 176.901825789024 0.00736931999720823 52.4102654858102 0.00736931999720824 52.4102654858102 0.992261276373432 176.600757545588 
15.33028                       0.995669550753724 176.901557023365 0.0073840819226202 52.3359121886936 0.00738408192262021 52.3359121886936 0.992237104656085 176.600167265533 
15.3303                        0.995658587383019 176.901288850427 0.00739888998651386 52.2612636856606 0.00739888998651387 52.2612636856605 0.992212810768586 176.599578285108 
15.33032                       0.995647568586342 176.90102128623  0.00741374431378458 52.1863184692503 0.00741374431378459 52.1863184692503 0.992188394072006 176.598990639861 
15.33034                       0.995636494074914 176.900754347009 0.00742864502870893 52.1110750240624 0.00742864502870894 52.1110750240624 0.992163853925578 176.598404365822 
15.33036                       0.99562536355914 176.900488049215 0.00744359225492858 52.0355318267008 0.00744359225492858 52.0355318267008 0.992139189686716 176.597819499505 
15.33038                       0.995614176748633 176.90022240952  0.00745858611542042 51.9596873457859 0.00745858611542043 51.9596873457858 0.992114400711055 176.597236077918 
15.3304                        0.995602933352233 176.899957444822 0.00747362673247914 51.8835400419027 0.00747362673247915 51.8835400419027 0.992089486352495 176.596654138563 
15.33042                       0.995591633078016 176.899693172239 0.00748871422768706 51.8070883676114 0.00748871422768706 51.8070883676113 0.992064445963238 176.59607371945  
15.33044                       0.995580275633321 176.899429609121 0.00750384872190037 51.7303307673723 0.00750384872190038 51.7303307673723 0.992039278893822 176.595494859093 
15.33046                       0.995568860724767 176.899166773048 0.00751903033521047 51.653265677597  0.00751903033521048 51.653265677597  0.992013984493183 176.594917596524 
15.33048                       0.99555738805827 176.898904681832 0.00753425918693316 51.5758915265557 0.00753425918693317 51.5758915265557 0.991988562108672 176.594341971296 
15.3305                        0.995545857339068 176.89864335352  0.00754953539557296 51.4982067344086 0.00754953539557297 51.4982067344086 0.991963011086127 176.593768023485 
15.33052                       0.995534268271741 176.8983828064   0.00756485907880374 51.4202097131539 0.00756485907880375 51.4202097131539 0.991937330769894 176.593195793703 
15.33054                       0.995522620560228 176.898123059    0.00758023035343587 51.3418988666408 0.00758023035343588 51.3418988666408 0.991911520502899 176.592625323099 
15.33056                       0.995510913907849 176.89786413009  0.00759564933539998 51.2632725904989 0.00759564933539999 51.2632725904989 0.991885579626668 176.592056653367 
15.33058                       0.995499148017343 176.89760603869  0.00761111613970536 51.1843292721922 0.00761111613970537 51.1843292721921 0.991859507481417 176.591489826751 
15.3306                        0.995487322590871 176.897348804065 0.00762663088042667 51.1050672909285 0.00762663088042667 51.1050672909285 0.991833303406067 176.590924886052 
15.33062                       0.995475437330051 176.897092445736 0.00764219367066519 51.025485017697  0.0076421936706652 51.025485017697  0.991806966738312 176.590361874635 
15.33064                       0.995463491935981 176.896836983476 0.00765780462252696 50.9455808152171 0.00765780462252697 50.9455808152171 0.991780496814684 176.589800836434 
15.33066                       0.995451486109269 176.896582437318 0.00767346384708746 50.8653530379546 0.00767346384708747 50.8653530379546 0.991753892970595 176.589241815959 
15.33068                       0.995439419550052 176.896328827552 0.0076891714543681 50.7848000320754 0.00768917145436811 50.7848000320754 0.991727154540402 176.5886848583   
15.3307                        0.995427291958022 176.896076174735 0.00770492755330535 50.703920135435  0.00770492755330535 50.703920135435  0.99170028085746 176.588130009137 
15.33072                       0.995415103032472 176.895824499687 0.00772073225171074 50.6227116776139 0.00772073225171075 50.6227116776139 0.991673271254203 176.587577314747 
15.33074                       0.995402852472297 176.8955738235   0.00773658565625646 50.5411729798173 0.00773658565625647 50.5411729798173 0.991646125062178 176.587026822004 
15.33076                       0.995390539976045 176.895324167536 0.00775248787242547 50.4593023549583 0.00775248787242547 50.4593023549583 0.99161884161214 176.586478578394 
15.33078                       0.995378165241938 176.895075553432 0.00776843900449549 50.3770981075622 0.00776843900449549 50.3770981075622 0.991591420234093 176.585932632015 
15.3308                        0.995365727967904 176.894828003103 0.00778443915549267 50.2945585338268 0.00778443915549268 50.2945585338268 0.99156386025738 176.585389031589 
15.33082                       0.995353227851613 176.894581538744 0.00780048842716919 50.2116819215565 0.0078004884271692 50.2116819215565 0.991536161010738 176.584847826463 
15.33084                       0.995340664590503 176.894336182837 0.00781658691996045 50.1284665501994 0.00781658691996046 50.1284665501994 0.99150832182238 176.584309066621 
15.33086                       0.995328037881817 176.894091958147 0.00783273473295888 50.0449106907976 0.00783273473295888 50.0449106907976 0.991480342020057 176.583772802687 
15.33088                       0.995315347422638 176.89384888773  0.00784893196387142 49.9610126060192 0.00784893196387143 49.9610126060192 0.991452220931156 176.583239085935 
15.3309                        0.995302592909924 176.893606994936 0.00786517870899013 49.8767705501201 0.00786517870899014 49.87677055012   0.991423957882752 176.582707968294 
15.33092                       0.995289774040547 176.893366303411 0.00788147506314907 49.7921827689754 0.00788147506314908 49.7921827689754 0.991395552201712 176.582179502355 
15.33094                       0.995276890511316 176.893126837098 0.00789782111969868 49.7072475000177 0.00789782111969869 49.7072475000176 0.991367003214748 176.581653741378 
15.33096                       0.995263942019041 176.892888620244 0.00791421697045322 49.6219629723132 0.00791421697045322 49.6219629723132 0.991338310248545 176.581130739301 
15.33098                       0.995250928260546 176.892651677402 0.00793066270566797 49.5363274064809 0.00793066270566798 49.5363274064809 0.991309472629799 176.580610550742 
15.331                         0.995237848932723 176.892416033431 0.00794715841398966 49.450339014749  0.00794715841398966 49.450339014749  0.991280489685337 176.580093231014 
15.33102                       0.995224703732573 176.892181713503 0.00796370418242421 49.3639960009192 0.00796370418242422 49.3639960009192 0.991251360742199 176.579578836124 
15.33104                       0.99521149235724 176.891948743107 0.00798030009629061 49.277296560401  0.00798030009629062 49.277296560401  0.991222085127732 176.579067422787 
15.33106                       0.995198214504065 176.891717148045 0.00799694623918683 49.1902388801805 0.00799694623918683 49.1902388801805 0.991192662169678 176.578559048428 
15.33108                       0.995184869870614 176.891486954446 0.00801364269294728 49.102821138832  0.00801364269294729 49.102821138832  0.991163091196279 176.578053771193 
15.3311                        0.995171458154745 176.891258188759 0.00803038953759477 49.0150415065559 0.00803038953759477 49.0150415065559 0.991133371536382 176.577551649954 
15.33112                       0.995157979054635 176.891030877764 0.00804718685130799 48.9268981451324 0.00804718685130799 48.9268981451324 0.991103502519524 176.577052744318 
15.33114                       0.995144432268835 176.89080504857  0.0080640347103699 48.8383892079741 0.0080640347103699 48.8383892079741 0.991073483476055 176.576557114632 
15.33116                       0.995130817496321 176.89058072862  0.0080809331891298 48.7495128401039 0.0080809331891298 48.7495128401039 0.991043313737233 176.576064821995 
15.33118                       0.995117134436535 176.890357945698 0.00809788235995518 48.6602671781842 0.00809788235995519 48.6602671781842 0.99101299263534 176.575575928259 
15.3312                        0.995103382789446 176.890136727924 0.00811488229319039 48.570650350509  0.0081148822931904 48.5706503505089 0.990982519503791 176.575090496045 
15.33122                       0.995089562255595 176.889917103768 0.00813193305710491 48.4806604770465 0.00813193305710492 48.4806604770465 0.990951893677255 176.57460858874  
15.33124                       0.995075672536152 176.889699102042 0.00814903471785562 48.3902956694079 0.00814903471785563 48.3902956694079 0.990921114491756 176.574130270515 
15.33126                       0.995061713332964 176.889482751914 0.00816618733942792 48.2995540309234 0.00816618733942793 48.2995540309234 0.990890181284819 176.573655606325 
15.33128                       0.995047684348616 176.889268082902 0.00818339098360166 48.2084336565865 0.00818339098360167 48.2084336565865 0.990859093395566 176.573184661922 
15.3313                        0.995033585286488 176.889055124886 0.00820064570988784 48.1169326331491 0.00820064570988784 48.1169326331491 0.990827850164864 176.572717503857 
15.33132                       0.995019415850812 176.888843908103 0.00821795157549464 48.0250490390604 0.00821795157549464 48.0250490390604 0.990796450935438 176.572254199495 
15.33134                       0.995005175746726 176.888634463159 0.00823530863526028 47.9327809445776 0.00823530863526029 47.9327809445775 0.990764895052013 176.571794817015 
15.33136                       0.994990864680344 176.888426821023 0.00825271694161847 47.8401264117028 0.00825271694161848 47.8401264117028 0.990733181861441 176.571339425424 
15.33138                       0.994976482358812 176.88822101304  0.00827017654453479 47.7470834942711 0.00827017654453479 47.7470834942711 0.990701310712841 176.57088809456  
15.3314                        0.99496202849037 176.888017070928 0.00828768749146027 47.6536502379447 0.00828768749146028 47.6536502379447 0.990669280957742 176.570440895105 
15.33142                       0.994947502784421 176.887815026783 0.00830524982727823 47.5598246802416 0.00830524982727823 47.5598246802416 0.990637091950219 176.569997898588 
15.33144                       0.994932904951594 176.887614913083 0.00832286359424572 47.4656048505885 0.00832286359424573 47.4656048505885 0.990604743047051 176.569559177394 
15.33146                       0.994918234703817 176.887416762691 0.00834052883194488 47.3709887703213 0.00834052883194488 47.3709887703213 0.990572233607861 176.569124804774 
15.33148                       0.994903491754377 176.88722060886  0.0083582455772204 47.275974452754  0.0083582455772204 47.275974452754  0.990539562995269 176.568694854851 
15.3315                        0.994888675817993 176.887026485233 0.00837601386413168 47.1805599031704 0.00837601386413168 47.1805599031704 0.990506730575059 176.568269402628 
15.33152                       0.994873786610897 176.886834425851 0.00839383372388639 47.0847431189089 0.0083938337238864 47.0847431189089 0.990473735716327 176.567848523998 
15.33154                       0.994858823850896 176.886644465151 0.00841170518479242 46.9885220893498 0.00841170518479242 46.9885220893498 0.99044057779164 176.567432295747 
15.33156                       0.994843787257452 176.886456637977 0.00842962827218759 46.8918947960166 0.00842962827218759 46.8918947960166 0.990407256177227 176.567020795567 
15.33158                       0.994828676551753 176.886270979574 0.0084476030083914 46.7948592125589 0.0084476030083914 46.794859212559  0.990373770253113 176.566614102063 
15.3316                        0.994813491456808 176.8860875256   0.00846562941263467 46.6974133048503 0.00846562941263467 46.6974133048503 0.99034011940333 176.566212294758 
15.33162                       0.994798231697501 176.885906312125 0.00848370750100723 46.5995550309864 0.00848370750100723 46.5995550309864 0.990306303016053 176.565815454102 
15.33164                       0.994782897000693 176.885727375635 0.00850183728638661 46.5012823413842 0.00850183728638662 46.5012823413842 0.990272320483826 176.565423661484 
15.33166                       0.994767487095298 176.885550753037 0.00852001877838492 46.4025931787795 0.00852001877838493 46.4025931787795 0.990238171203702 176.565036999234 
15.33168                       0.994752001712366 176.885376481659 0.00853825198327326 46.3034854783438 0.00853825198327327 46.3034854783438 0.990203854577465 176.564655550634 
15.3317                        0.994736440585166 176.885204599259 0.00855653690392857 46.2039571676774 0.00855653690392857 46.2039571676774 0.990169370011801 176.564279399925 
15.33172                       0.994720803449287 176.885035144023 0.00857487353975771 46.104006166923  0.00857487353975772 46.104006166923  0.990134716918505 176.563908632317 
15.33174                       0.994705090042715 176.884868154572 0.00859326188664115 46.0036303887715 0.00859326188664115 46.0036303887715 0.990099894714669 176.563543333993 
15.33176                       0.994689300105932 176.884703669962 0.00861170193685274 45.9028277385936 0.00861170193685274 45.9028277385936 0.990064902822904 176.563183592119 
15.33178                       0.994673433382   176.884541729691 0.00863019367900472 45.801596114433  0.00863019367900472 45.801596114433  0.990029740671521 176.562829494855 
15.3318                        0.994657489616668 176.884382373702 0.00864873709797057 45.6999334071176 0.00864873709797058 45.6999334071176 0.989994407694768 176.562481131354 
15.33182                       0.994641468558463 176.884225642384 0.00866733217481388 45.5978375003353 0.00866733217481388 45.5978375003353 0.989958903333026 176.562138591781 
15.33184                       0.994625369958789 176.884071576576 0.00868597888672275 45.4953062706768 0.00868597888672276 45.4953062706768 0.989923227033044 176.56180196731  
15.33186                       0.994609193572028 176.883920217572 0.00870467720693054 45.3923375877514 0.00870467720693054 45.3923375877514 0.989887378248156 176.561471350139 
15.33188                       0.994592939155639 176.883771607124 0.00872342710465153 45.2889293142182 0.00872342710465154 45.2889293142182 0.989851356438497 176.561146833497 
15.3319                        0.994576606470276 176.883625787442 0.00874222854499748 45.18507930592   0.00874222854499748 45.18507930592   0.989815161071265 176.560828511645 
15.33192                       0.994560195279874 176.883482801202 0.00876108148891295 45.0807854119115 0.00876108148891295 45.0807854119115 0.989778791620922 176.560516479893 
15.33194                       0.994543705351776 176.883342691547 0.00877998589308666 44.9760454746169 0.00877998589308666 44.9760454746169 0.989742247569467 176.560210834602 
15.33196                       0.994527136456833 176.883205502091 0.00879894170988995 44.8708573298368 0.00879894170988995 44.8708573298368 0.989705528406659 176.559911673189 
15.33198                       0.99451048836952 176.88307127692  0.00881794888728355 44.7652188069256 0.00881794888728356 44.7652188069256 0.989668633630283 176.559619094142 
15.332                         0.99449376086805 176.882940060597 0.00883700736875268 44.659127728813  0.00883700736875268 44.659127728813  0.989631562746388 176.55933319702  
15.33202                       0.994476953734492 176.882811898166 0.00885611709321339 44.5525819121791 0.00885611709321339 44.5525819121791 0.989594315269569 176.559054082465 
15.33204                       0.994460066754886 176.882686835154 0.00887527799494738 44.4455791674725 0.00887527799494738 44.4455791674725 0.989556890723206 176.558781852206 
15.33206                       0.994443099719374 176.882564917572 0.00889449000350392 44.3381172991062 0.00889449000350393 44.3381172991062 0.989519288639756 176.558516609069 
15.33208                       0.994426052422302 176.882446191921 0.00891375304363358 44.2301941054766 0.00891375304363358 44.2301941054766 0.989481508561003 176.55825845698  
15.3321                        0.994408924662375 176.882330705197 0.00893306703518893 44.1218073791627 0.00893306703518893 44.1218073791627 0.989443550038365 176.558007500976 
15.33212                       0.994391716242757 176.882218504887 0.00895243189305385 44.0129549069642 0.00895243189305385 44.0129549069642 0.989405412633144 176.557763847211 
15.33214                       0.994374426971215 176.882109638977 0.00897184752704387 43.9036344700997 0.00897184752704387 43.9036344700997 0.98936709591685 176.557527602959 
15.33216                       0.994357056660253 176.882004155955 0.0089913138418336 43.7938438442512 0.0089913138418336 43.7938438442512 0.989328599471465 176.557298876627 
15.33218                       0.994339605127234 176.881902104812 0.00901083073686069 43.6835807997369 0.00901083073686069 43.6835807997369 0.98928992288975 176.557077777754 
15.3322                        0.994322072194526 176.881803535043 0.00903039810623649 43.5728431016462 0.00903039810623649 43.5728431016462 0.989251065775566 176.556864417024 
15.33222                       0.994304457689639 176.881708496656 0.00905001583866209 43.4616285099416 0.00905001583866209 43.4616285099416 0.989212027744152 176.556658906269 
15.33224                       0.994286761445371 176.881617040168 0.00906968381732941 43.349934779643  0.00906968381732942 43.349934779643  0.989172808422469 176.556461358476 
15.33226                       0.994268983299932 176.88152921661  0.00908940191984286 43.2377596608941 0.00908940191984286 43.2377596608941 0.989133407449489 176.55627188779  
15.33228                       0.994251123097119 176.88144507753  0.00910917001810826 43.1251008992117 0.00910917001810826 43.1251008992117 0.989093824476554 176.556090609527 
15.3323                        0.994233180686436 176.881364674995 0.00912898797825768 43.0119562355317 0.00912898797825768 43.0119562355317 0.989054059167672 176.555917640171 
15.33232                       0.994215155923267 176.881288061595 0.00914885566054126 42.8983234064379 0.00914885566054126 42.8983234064379 0.989014111199874 176.555753097387 
15.33234                       0.994197048669013 176.881215290441 0.00916877291924 42.784200144272  0.00916877291924 42.7842001442721 0.988973980263545 176.555597100019 
15.33236                       0.994178858791262 176.881146415172 0.00918873960256148 42.6695841773396 0.00918873960256148 42.6695841773396 0.988933666062783 176.555449768104 
15.33238                       0.994160586163925 176.881081489954 0.00920875555255145 42.5544732300218 0.00920875555255146 42.5544732300218 0.98889316831572 176.55531122287  
15.3324                        0.994142230667427 176.881020569483 0.00922882060498509 42.4388650230047 0.00922882060498509 42.4388650230047 0.988852486754923 176.555181586742 
15.33242                       0.994123792188837 176.880963708988 0.00924893458927828 42.3227572733902 0.00924893458927829 42.3227572733902 0.988811621127711 176.555060983349 
15.33244                       0.994105270622062 176.88091096423  0.00926909732837339 42.2061476949542 0.0092690973283734 42.2061476949541 0.988770571196569 176.554949537529 
15.33246                       0.994086665867994 176.880862391508 0.00928930863865474 42.0890339982305 0.00928930863865474 42.0890339982305 0.988729336739473 176.554847375329 
15.33248                       0.994067977834699 176.880818047656 0.0093095683298253 41.9714138908195 0.0093095683298253 41.9714138908195 0.988687917550319 176.554754624013 
15.3325                        0.994049206437564 176.88077799005  0.00932987620482643 41.8532850774452 0.00932987620482643 41.8532850774452 0.988646313439264 176.554671412064 
15.33252                       0.994030351599505 176.880742276603 0.00935023205970998 41.7346452602884 0.00935023205970998 41.7346452602884 0.988604524233154 176.554597869188 
15.33254                       0.994011413251119 176.880710965771 0.00937063568355176 41.6154921390789 0.00937063568355176 41.6154921390789 0.988562549775895 176.554534126318 
15.33256                       0.993992391330876 176.880684116555 0.00939108685833641 41.4958234113523 0.00939108685833641 41.4958234113523 0.988520389928865 176.554480315615 
15.33258                       0.993973285785307 176.880661788497 0.0094115853588447 41.375636772693  0.0094115853588447 41.375636772693  0.988478044571329 176.554436570474 
15.3326                        0.993954096569175 176.880644041686 0.00943213095256001 41.2549299168648 0.00943213095256001 41.2549299168648 0.988435513600842 176.554403025524 
15.33262                       0.993934823645679 176.880630936757 0.00945272339954147 41.133700536135  0.00945272339954147 41.133700536135  0.98839279693368 176.554379816633 
15.33264                       0.993915466986634 176.880622534891 0.00947336245233216 41.0119463213942 0.00947336245233216 41.0119463213942 0.988349894505249 176.554367080904 
15.33266                       0.993896026572678 176.880618897818 0.00949404785582774 40.8896649625073 0.00949404785582774 40.8896649625073 0.988306806270548 176.554364956686 
15.33268                       0.993876502393447 176.880620087815 0.00951477934718372 40.7668541484372 0.00951477934718372 40.7668541484372 0.988263532204568 176.554373583568 
15.3327                        0.993856894447803 176.880626167706 0.00953555665568847 40.6435115675712 0.00953555665568847 40.6435115675712 0.988220072302771 176.554393102383 
15.33272                       0.993837202744007 176.880637200865 0.00955637950265812 40.5196349079175 0.00955637950265812 40.5196349079175 0.988176426581514 176.554423655208 
15.33274                       0.993817427299949 176.880653251216 0.0095772476013131 40.3952218574114 0.00957724760131309 40.3952218574114 0.988132595078528 176.554465385364 
15.33276                       0.993797568143329 176.880674383229 0.00959816065667672 40.2702701040908 0.00959816065667672 40.2702701040908 0.988088577853353 176.554518437419 
15.33278                       0.993777625311895 176.880700661924 0.00961911836543928 40.1447773364779 0.00961911836543928 40.1447773364779 0.988044374987834 176.554582957185 
15.3328                        0.993757598853631 176.880732152867 0.00964012041586133 40.0187412437279 0.00964012041586133 40.0187412437279 0.987999986586569 176.554659091718 
15.33282                       0.993737488826989 176.880768922173 0.00966116648763691 39.8921595160178 0.00966116648763692 39.8921595160178 0.987955412777418 176.554746989316 
15.33284                       0.993717295301094 176.880811036504 0.00968225625179268 39.7650298447219 0.00968225625179267 39.7650298447219 0.987910653711949 176.554846799521 
15.33286                       0.99369701835598 176.880858563064 0.00970338937055129 39.6373499228024 0.00970338937055129 39.6373499228024 0.987865709565973 176.554958673112 
15.33288                       0.993676658082791 176.880911569607 0.00972456549722549 39.5091174450177 0.00972456549722549 39.5091174450177 0.987820580540005 176.555082762109 
15.3329                        0.993656214584032 176.880970124424 0.00974578427608629 39.380330108288  0.00974578427608629 39.380330108288  0.987775266859797 176.555219219766 
15.33292                       0.993635687973774 176.881034296354 0.00976704534224661 39.2509856119699 0.00976704534224661 39.2509856119699 0.987729768776823 176.555368200568 
15.33294                       0.993615078377901 176.88110415477  0.00978834832154345 39.1210816581408 0.00978834832154344 39.1210816581408 0.987684086568798 176.55552986023  
15.33296                       0.993594385934336 176.881179769587 0.00980969283039937 38.9906159520129 0.00980969283039937 38.9906159520129 0.987638220540228 176.555704355692 
15.33298                       0.993573610793277 176.881261211255 0.00983107847571878 38.8595862021366 0.00983107847571878 38.8595862021366 0.987592171022888 176.555891845114 
15.333                         0.993552753117443 176.881348550757 0.00985250485474549 38.7279901208439 0.00985250485474548 38.7279901208439 0.987545938376396 176.55609248787  
15.33302                       0.9935318130823  176.881441859607 0.0098739715549523 38.5958254244976 0.0098739715549523 38.5958254244976 0.987499522988724 176.556306444546 
15.33304                       0.993510790876321 176.881541209847 0.00989547815390384 38.4630898339094 0.00989547815390384 38.4630898339094 0.987452925276765 176.556533876933 
15.33306                       0.993489686701219 176.881646674046 0.00991702421914151 38.3297810746237 0.00991702421914151 38.3297810746238 0.987406145686853 176.556774948016 
15.33308                       0.993468500772203 176.881758325293 0.00993860930804695 38.1958968773388 0.00993860930804695 38.1958968773388 0.987359184695343 176.557029821973 
15.3331                        0.99344723331823 176.881876237196 0.00996023296772354 38.0614349782205 0.00996023296772355 38.0614349782205 0.987312042809158 176.557298664167 
15.33312                       0.993425884582249 176.882000483878 0.00998189473485971 37.9263931193319 0.00998189473485971 37.9263931193319 0.987264720566362 176.557581641133 
15.33314                       0.993404454821462 176.882131139972 0.0100035941356161 37.7907690489197 0.0100035941356161 37.7907690489197 0.987217218536714 176.557878920574 
15.33316                       0.993382944307588 176.882268280619 0.0100253306854773 37.6545605219279 0.0100253306854773 37.654560521928  0.987169537322273 176.55819067135  
15.33318                       0.993361353327106 176.88241198146  0.0100471038891435 37.5177653002626 0.0100471038891435 37.5177653002626 0.987121677557945 176.558517063468 
15.3332                        0.993339682181541 176.882562318634 0.0100689132403874 37.3803811532854 0.0100689132403874 37.3803811532854 0.987073639912093 176.558858268072 
15.33322                       0.993317931187703 176.882719368771 0.0100907582219344 37.2424058581622 0.0100907582219344 37.2424058581622 0.987025425087117 176.559214457433 
15.33324                       0.993296100677977 176.882883208989 0.0101126383053244 37.103837200336  0.0101126383053244 37.1038372003361 0.986977033820055 176.559585804933 
15.33326                       0.993274191000566 176.883053916886 0.0101345529507972 36.964672973855  0.0101345529507972 36.964672973855  0.98692846688317 176.559972485058 
15.33328                       0.99325220251979 176.883231570534 0.0101565016071431 36.8249109819305 0.0101565016071431 36.8249109819305 0.986879725084578 176.560374673381 
15.3333                        0.993230135616334 176.883416248474 0.0101784837115928 36.68454903725   0.0101784837115928 36.68454903725   0.986830809268828 176.560792546551 