! Touchstone file exported from HFSS 2024.2.0
!        File:           C:/Users/peter/Documents/Ansoft/Maybell_cavity/CavityFromMaybell.aedt
!        Generated:      10:26:17 AM May 31, 2025
!        Design:         LossyEmpty
!        Project:        CavityFromMaybell
!        Setup:          Setup1
!        Solution:       MaybellSweep
!
! Variables:
!        $epsr = 5.5
!        $tandel = 0.003
!        a = 0.35in
!        d = 3.5in
!        f0_ideal = 15.3934197621267GHz
!        iris_radius = 0.0705in
!        iris_width = 0.04in
!        rwg_a = 0.622in
!        rwg_b = 0.311in
!        rwg_length = 0.3in
!
!Data is not renormalized
# GHz S MA
! Terminal data exported
! Port[1] = 1
! Port[2] = 2
15.35                          0.998178218427017 177.036903178835 0.00172310566831667 77.4317733334789 0.00172310566831667 77.4317733334789 0.998185611522136 177.037289703074 
15.35004                       0.998177477238015 177.036759365987 0.00172546564929417 77.4202208648078 0.00172546564929417 77.4202208648078 0.998184870508461 177.037145769982 
15.35008                       0.998176733131124 177.03661521507  0.00172783199522251 77.4086370075555 0.00172783199522252 77.4086370075555 0.998184126576416 177.037001498485 
15.35012                       0.998175986090848 177.0364707248   0.00173020473157113 77.3970216342186 0.00173020473157114 77.3970216342186 0.9981833797105  177.0368568873   
15.35016                       0.998175236101592 177.036325893889 0.00173258388394389 77.3853746166072 0.00173258388394389 77.3853746166072 0.998182629895107 177.036711935136 
15.3502                        0.998174483147652 177.036180721041 0.00173496947807996 77.3736958258404 0.00173496947807996 77.3736958258403 0.998181877114531 177.036566640696 
15.35024                       0.998173727213221 177.036035204956 0.0017373615398547 77.3619851323421 0.00173736153985471 77.361985132342  0.99818112135296 177.036421002678 
15.35028                       0.998172968282389 177.035889344325 0.00173976009528064 77.3502424058356 0.00173976009528065 77.3502424058356 0.998180362594476 177.036275019773 
15.35032                       0.998172206339138 177.035743137834 0.00174216517050811 77.33846751534   0.00174216517050812 77.33846751534   0.998179600823056 177.036128690664 
15.35036                       0.998171441367344 177.035596584161 0.0017445767918265 77.3266603291642 0.0017445767918265 77.3266603291642 0.998178836022572 177.03598201403  
15.3504                        0.998170673350774 177.03544968198  0.00174699498566487 77.3148207149032 0.00174699498566488 77.3148207149032 0.998178068176785 177.035834988541 
15.35044                       0.99816990227309 177.035302429957 0.0017494197785932 77.3029485394318 0.0017494197785932 77.3029485394318 0.998177297269347 177.035687612863 
15.35048                       0.99816912811784 177.035154826752 0.00175185119732295 77.2910436689016 0.00175185119732296 77.2910436689016 0.998176523283806 177.035539885653 
15.35052                       0.998168350868465 177.035006871016 0.00175428926870811 77.2791059687356 0.00175428926870812 77.2791059687355 0.998175746203592 177.035391805564 
15.35056                       0.998167570508294 177.034858561396 0.00175673401974635 77.2671353036218 0.00175673401974636 77.2671353036218 0.998174966012031 177.035243371238 
15.3506                        0.998166787020543 177.034709896532 0.00175918547757963 77.2551315375107 0.00175918547757963 77.2551315375106 0.998174182692331 177.035094581316 
15.35064                       0.998166000388317 177.034560875057 0.0017616436694955 77.2430945336076 0.00176164366949551 77.2430945336076 0.998173396227592 177.034945434427 
15.35068                       0.998165210594604 177.034411495596 0.00176410862292775 77.2310241543699 0.00176410862292776 77.2310241543698 0.998172606600795 177.034795929197 
15.35072                       0.99816441762228 177.034261756769 0.00176658036545754 77.2189202615009 0.00176658036545755 77.2189202615009 0.99817181379481 177.034646064243 
15.35076                       0.998163621454106 177.034111657187 0.00176905892481448 77.2067827159441 0.00176905892481449 77.206782715944  0.998171017792392 177.034495838176 
15.3508                        0.998162822072724 177.033961195456 0.00177154432887735 77.1946113778793 0.00177154432887736 77.1946113778792 0.998170218576175 177.034345249599 
15.35084                       0.998162019460657 177.033810370175 0.00177403660567529 77.1824061067167 0.0017740366056753 77.1824061067167 0.998169416128678 177.03419429711  
15.35088                       0.998161213600315 177.033659179934 0.00177653578338874 77.1701667610919 0.00177653578338875 77.1701667610918 0.998168610432304 177.034042979298 
15.35092                       0.998160404473981 177.033507623319 0.00177904189035044 77.1578931988599 0.00177904189035045 77.1578931988599 0.99816780146933 177.033891294746 
15.35096                       0.998159592063829 177.033355698906 0.00178155495504648 77.1455852770909 0.0017815549550465 77.1455852770908 0.998166989221917 177.033739242031 
15.351                         0.998158776351896 177.033203405265 0.0017840750061173 77.133242852064  0.00178407500611731 77.1332428520639 0.998166173672104 177.033586819719 
15.35104                       0.998157957320111 177.03305074096  0.00178660207235872 77.120865779262  0.00178660207235873 77.1208657792619 0.998165354801809 177.033434026374 
15.35108                       0.99815713495027 177.032897704546 0.00178913618272298 77.1084539133661 0.00178913618272299 77.108453913366  0.998164532592824 177.033280860549 
15.35112                       0.998156309224052 177.032744294572 0.00179167736631981 77.0960071082504 0.00179167736631982 77.0960071082503 0.998163707026815 177.033127320791 
15.35116                       0.998155480123002 177.032590509578 0.00179422565241746 77.0835252169761 0.00179422565241748 77.083525216976  0.998162878085325 177.03297340564  
15.3512                        0.998154647628547 177.0324363481   0.00179678107044379 77.0710080917859 0.00179678107044381 77.0710080917858 0.998162045749774 177.032819113628 
15.35124                       0.998153811721979 177.032281808662 0.00179934364998733 77.0584555840986 0.00179934364998734 77.0584555840985 0.998161210001447 177.032664443279 
15.35128                       0.99815297238447 177.032126889785 0.0018019134207984 77.045867544503  0.00180191342079842 77.0458675445028 0.998160370821504 177.032509393113 
15.35132                       0.998152129597054 177.03197158998  0.00180449041279003 77.0332438227529 0.00180449041279005 77.0332438227528 0.998159528190977 177.032353961637 
15.35136                       0.998151283340638 177.03181590775  0.00180707465603935 77.0205842677605 0.00180707465603936 77.0205842677603 0.998158682090767 177.032198147356 
15.3514                        0.998150433595998 177.031659841593 0.00180966618078852 77.0078887275901 0.00180966618078854 77.00788872759   0.998157832501636 177.032041948763 
15.35144                       0.998149580343776 177.031503389997 0.00181226501744575 76.9951570494546 0.00181226501744577 76.9951570494544 0.998156979404225 177.031885364347 
15.35148                       0.998148723564483 177.031346551444 0.00181487119658675 76.9823890797062 0.00181487119658677 76.982389079706  0.998156122779034 177.031728392586 
15.35152                       0.99814786323849 177.031189324407 0.00181748474895543 76.9695846638335 0.00181748474895545 76.9695846638333 0.998155262606426 177.031571031952 
15.35156                       0.998146999346032 177.031031707352 0.00182010570546551 76.9567436464528 0.00182010570546553 76.9567436464526 0.998154398866634 177.031413280911 
15.3516                        0.998146131867215 177.030873698737 0.00182273409720128 76.9438658713041 0.0018227340972013 76.943865871304  0.998153531539747 177.031255137917 
15.35164                       0.998145260781995 177.030715297012 0.00182536995541893 76.9309511812445 0.00182536995541895 76.9309511812444 0.998152660605724 177.03109660142  
15.35168                       0.998144386070198 177.030556500619 0.00182801331154787 76.9179994182403 0.00182801331154789 76.9179994182401 0.998151786044373 177.03093766986  
15.35172                       0.998143507711503 177.030397307993 0.0018306641971916 76.9050104233632 0.00183066419719162 76.905010423363  0.998150907835372 177.030778341671 
15.35176                       0.998142625685449 177.030237717561 0.00183332264412913 76.8919840367825 0.00183332264412915 76.8919840367824 0.998150025958249 177.030618615275 
15.3518                        0.998141739971436 177.030077727739 0.00183598868431603 76.8789200977596 0.00183598868431605 76.8789200977594 0.998149140392397 177.030458489091 
15.35184                       0.998140850548712 177.029917336939 0.00183866234988592 76.8658184446399 0.00183866234988595 76.8658184446397 0.998148251117057 177.030297961526 
15.35188                       0.998139957396387 177.029756543563 0.00184134367315131 76.8526789148488 0.00184134367315134 76.8526789148486 0.998147358111327 177.030137030982 
15.35192                       0.998139060493418 177.029595346004 0.00184403268660508 76.8395013448836 0.0018440326866051 76.8395013448834 0.998146461354161 177.029975695849 
15.35196                       0.99813815981862 177.029433742649 0.00184672942292164 76.8262855703072 0.00184672942292166 76.8262855703071 0.99814556082436 177.029813954513 
15.352                         0.998137255350654 177.029271731874 0.00184943391495821 76.8130314257416 0.00184943391495823 76.8130314257414 0.998144656500582 177.029651805349 
15.35204                       0.998136347068033 177.029109312049 0.00185214619575606 76.7997387448611 0.00185214619575608 76.7997387448609 0.998143748361328 177.029489246724 
15.35208                       0.99813543494912 177.028946481535 0.00185486629854179 76.7864073603859 0.00185486629854182 76.7864073603857 0.998142836384951 177.029326276997 
15.35212                       0.99813451897212 177.028783238684 0.00185759425672851 76.7730371040752 0.00185759425672853 76.7730371040751 0.998141920549653 177.029162894519 
15.35216                       0.998133599115088 177.02861958184  0.0018603301039176 76.7596278067188 0.00186033010391762 76.7596278067186 0.998141000833478 177.028999097631 
15.3522                        0.998132675355922 177.028455509337 0.00186307387389916 76.7461792981337 0.00186307387389918 76.7461792981335 0.998140077214312 177.028834884668 
15.35224                       0.998131747672364 177.028291019503 0.00186582560065407 76.7326914071537 0.0018658256006541 76.7326914071534 0.99813914966989 177.028670253954 
15.35228                       0.998130816041996 177.028126110655 0.00186858531835507 76.7191639616238 0.00186858531835509 76.7191639616236 0.998138218177785 177.028505203804 
15.35232                       0.998129880442243 177.027960781104 0.00187135306136789 76.7055967883938 0.00187135306136791 76.7055967883936 0.998137282715415 177.028339732528 
15.35236                       0.998128940850368 177.027795029148 0.00187412886425296 76.6919897133096 0.00187412886425299 76.6919897133094 0.998136343260032 177.028173838423 
15.3524                        0.998127997243469 177.027628853082 0.00187691276176659 76.6783425612067 0.00187691276176661 76.6783425612065 0.998135399788726 177.028007519779 
15.35244                       0.998127049598485 177.027462251186 0.00187970478886215 76.6646551559039 0.00187970478886218 76.6646551559037 0.998134452278425 177.027840774878 
15.35248                       0.998126097892188 177.027295221736 0.00188250498069189 76.6509273201939 0.00188250498069192 76.6509273201936 0.998133500705891 177.027673601992 
15.35252                       0.998125142101183 177.027127762996 0.00188531337260783 76.637158875838  0.00188531337260785 76.6371588758378 0.998132545047725 177.027505999383 
15.35256                       0.998124182201908 177.026959873222 0.00188813000016363 76.623349643557  0.00188813000016365 76.6233496435568 0.998131585280347 177.027337965306 
15.3526                        0.998123218170631 177.026791550662 0.00189095489911563 76.609499443025  0.00189095489911566 76.6094994430247 0.998130621380021 177.027169498007 
15.35264                       0.998122249983451 177.026622793553 0.00189378810542442 76.595608092861  0.00189378810542445 76.5956080928608 0.998129653322835 177.02700059572  
15.35268                       0.99812127761629 177.026453600124 0.00189662965525646 76.5816754106211 0.00189662965525648 76.5816754106208 0.998128681084701 177.026831256673 
15.35272                       0.998120301044905 177.026283968594 0.00189947958498517 76.5677012127915 0.0018994795849852 76.5677012127913 0.998127704641365 177.026661479083 
15.35276                       0.998119320244868 177.026113897174 0.00190233793119265 76.5536853147803 0.00190233793119267 76.5536853147801 0.998126723968393 177.026491261159 
15.3528                        0.998118335191581 177.025943384064 0.001905204730671 76.53962753091   0.00190520473067102 76.5396275309097 0.998125739041173 177.026320601099 
15.35284                       0.998117345860265 177.025772427455 0.00190808002042408 76.5255276744082 0.0019080800204241 76.525527674408  0.998124749834916 177.026149497092 
15.35288                       0.998116352225963 177.02560102553  0.00191096383766863 76.5113855574019 0.00191096383766866 76.5113855574017 0.998123756324657 177.025977947319 
15.35292                       0.998115354263535 177.02542917646  0.00191385621983602 76.4972009909076 0.00191385621983605 76.4972009909074 0.998122758485242 177.025805949949 
15.35296                       0.99811435194766 177.025256878409 0.00191675720457373 76.4829737848241 0.00191675720457375 76.4829737848238 0.998121756291344 177.025633503144 
15.353                         0.998113345252829 177.025084129529 0.00191966682974684 76.4687037479235 0.00191966682974687 76.4687037479233 0.998120749717439 177.025460605055 
15.35304                       0.998112334153351 177.024910927964 0.00192258513343965 76.4543906878441 0.00192258513343968 76.4543906878439 0.998119738737831 177.025287253823 
15.35308                       0.998111318623346 177.024737271848 0.00192551215395725 76.4400344110806 0.00192551215395728 76.4400344110803 0.998118723326623 177.025113447579 
15.35312                       0.998110298636745 177.024563159304 0.00192844792982686 76.4256347229775 0.00192844792982689 76.4256347229773 0.998117703457738 177.024939184446 
15.35316                       0.998109274167284 177.024388588447 0.0019313924997998 76.4111914277187 0.00193139249979983 76.4111914277185 0.998116679104902 177.024764462534 
15.3532                        0.998108245188513 177.024213557379 0.00193434590285282 76.3967043283202 0.00193434590285285 76.39670432832   0.998115650241652 177.024589279947 
15.35324                       0.998107211673785 177.024038064196 0.00193730817818988 76.3821732266205 0.00193730817818991 76.3821732266202 0.99811461684133 177.024413634776 
15.35328                       0.998106173596255 177.023862106981 0.0019402793652435 76.3675979232737 0.00194027936524352 76.3675979232734 0.998113578877081 177.024237525102 
15.35332                       0.998105130928882 177.023685683807 0.00194325950367676 76.3529782177382 0.00194325950367679 76.352978217738  0.998112536321852 177.024060948998 
15.35336                       0.998104083644425 177.023508792739 0.00194624863338483 76.3383139082695 0.00194624863338485 76.3383139082692 0.998111489148389 177.023883904524 
15.3534                        0.998103031715442 177.023331431829 0.00194924679449638 76.3236047919114 0.0019492467944964 76.3236047919111 0.998110437329241 177.023706389732 
15.35344                       0.998101975114289 177.023153599121 0.00195225402737576 76.3088506644854 0.00195225402737579 76.3088506644851 0.998109380836752 177.023528402662 
15.35348                       0.998100913813116 177.022975292646 0.00195527037262417 76.2940513205838 0.0019552703726242 76.2940513205835 0.998108319643059 177.023349941345 
15.35352                       0.99809984778387 177.022796510427 0.00195829587108188 76.279206553558  0.00195829587108191 76.2792065535577 0.998107253720095 177.023171003802 
15.35356                       0.998098776998281 177.022617250476 0.00196133056382945 76.2643161555119 0.00196133056382948 76.2643161555116 0.998106183039579 177.02299158804  
15.3536                        0.998097701427876 177.022437510794 0.00196437449219 76.24937991729   0.00196437449219003 76.2493799172897 0.998105107573031 177.022811692059 
15.35364                       0.998096621043969 177.02225728937  0.00196742769773049 76.2343976284699 0.00196742769773052 76.2343976284697 0.998104027291749 177.022631313847 
15.35368                       0.998095535817659 177.022076584185 0.00197049022226377 76.2193690773521 0.0019704902222638 76.2193690773518 0.998102942166816 177.022450451382 
15.35372                       0.99809444571983 177.021895393206 0.00197356210785025 76.2042940509502 0.00197356210785028 76.2042940509499 0.998101852169108 177.022269102629 
15.35376                       0.998093350721145 177.021713714393 0.00197664339679993 76.1891723349807 0.00197664339679995 76.1891723349804 0.998100757269275 177.022087265545 
15.3538                        0.998092250792052 177.021531545692 0.0019797341316737 76.1740037138553 0.00197973413167373 76.174003713855  0.99809965743775 177.021904938075 
15.35384                       0.998091145902773 177.021348885039 0.00198283435528602 76.1587879706677 0.00198283435528605 76.1587879706674 0.998098552644744 177.021722118151 
15.35388                       0.998090036023309 177.021165730359 0.00198594411070583 76.143524887187  0.00198594411070586 76.1435248871867 0.998097442860245 177.021538803697 
15.35392                       0.998088921123435 177.020982079566 0.001989063441259 76.128214243846  0.00198906344125903 76.1282142438457 0.998096328054013 177.021354992624 
15.35396                       0.998087801172696 177.020797930562 0.00199219239053006 76.112855819731  0.00199219239053009 76.1128558197307 0.998095208195585 177.021170682833 
15.354                         0.998086676140412 177.020613281239 0.0019953310023641 76.097449392572  0.00199533100236413 76.0974493925717 0.998094083254261 177.020985872213 
15.35404                       0.998085545995667 177.020428129476 0.0019984793208687 76.0819947387322 0.00199847932086873 76.0819947387319 0.998092953199113 177.02080055864  
15.35408                       0.99808441070731 177.020242473144 0.00200163739041582 76.0664916331976 0.00200163739041585 76.0664916331973 0.99809181799898 177.020614739982 
15.35412                       0.998083270243961 177.020056310097 0.00200480525564387 76.0509398495663 0.0020048052556439 76.050939849566  0.998090677622463 177.020428414094 
15.35416                       0.998082124573992 177.019869638183 0.00200798296145937 76.035339160039  0.0020079829614594 76.0353391600387 0.998089532037925 177.020241578817 
15.3542                        0.998080973665543 177.019682455234 0.00201117055303933 76.0196893354066 0.00201117055303936 76.0196893354063 0.998088381213489 177.020054231984 
15.35424                       0.998079817486506 177.019494759074 0.00201436807583302 76.0039901450403 0.00201436807583305 76.00399014504   0.998087225117035 177.019866371416 
15.35428                       0.998078656004533 177.019306547512 0.00201757557556408 75.9882413568805 0.0020175755755641 75.9882413568802 0.998086063716199 177.019677994918 
15.35432                       0.998077489187026 177.019117818348 0.00202079309823228 75.9724427374271 0.00202079309823231 75.9724427374268 0.998084896978369 177.019489100289 
15.35436                       0.998076317001139 177.018928569367 0.00202402069011612 75.9565940517256 0.00202402069011615 75.9565940517253 0.998083724870683 177.019299685311 
15.3544                        0.998075139413774 177.018738798345 0.00202725839777425 75.9406950633591 0.00202725839777428 75.9406950633588 0.998082547360031 177.019109747758 
15.35444                       0.998073956391579 177.018548503044 0.00203050626804817 75.9247455344342 0.0020305062680482 75.9247455344339 0.998081364413045 177.018919285389 
15.35448                       0.998072767900947 177.018357681214 0.00203376434806379 75.9087452255722 0.00203376434806381 75.9087452255718 0.998080175996101 177.018728295952 
15.35452                       0.998071573908012 177.018166330594 0.00203703268523406 75.8926938958947 0.00203703268523409 75.8926938958944 0.998078982075321 177.018536777183 
15.35456                       0.998070374378648 177.01797444891  0.00204031132726068 75.8765913030148 0.00204031132726071 75.8765913030145 0.998077782616563 177.018344726805 
15.3546                        0.998069169278465 177.017782033875 0.00204360032213645 75.8604372030244 0.00204360032213648 75.8604372030241 0.998076577585421 177.01815214253  
15.35464                       0.998067958572808 177.01758908319  0.00204689971814763 75.8442313504805 0.00204689971814766 75.8442313504802 0.998075366947224 177.017959022055 
15.35468                       0.998066742226753 177.017395594544 0.00205020956387579 75.8279734983965 0.00205020956387581 75.8279734983962 0.998074150667034 177.017765363067 
15.35472                       0.998065520205109 177.017201565612 0.00205352990820023 75.8116633982279 0.00205352990820025 75.8116633982275 0.998072928709639 177.017571163239 
15.35476                       0.998064292472406 177.017006994058 0.00205686080030014 75.7953007998612 0.00205686080030017 75.7953007998609 0.998071701039562 177.017376420231 
15.3548                        0.998063058992905 177.016811877532 0.00206020228965712 75.7788854516004 0.00206020228965714 75.7788854516001 0.99807046762104 177.017181131692 
15.35484                       0.998061819730586 177.016616213672 0.00206355442605702 75.7624171001562 0.00206355442605704 75.7624171001559 0.99806922841804 177.016985295256 
15.35488                       0.998060574649149 177.016420000103 0.00206691725959255 75.7458954906327 0.00206691725959257 75.7458954906323 0.998067983394241 177.016788908545 
15.35492                       0.99805932371201 177.016223234435 0.00207029084066551 75.7293203665145 0.00207029084066553 75.7293203665142 0.998066732513049 177.016591969169 
15.35496                       0.998058066882298 177.016025914268 0.00207367521998913 75.7126914696549 0.00207367521998916 75.7126914696545 0.998065475737573 177.016394474722 
15.355                         0.998056804122858 177.015828037186 0.00207707044859053 75.6960085402614 0.00207707044859055 75.696008540261  0.998064213030639 177.016196422788 
15.35504                       0.998055535396238 177.015629600762 0.00208047657781276 75.6792713168855 0.00208047657781278 75.6792713168852 0.998062944354785 177.015997810935 
15.35508                       0.9980542606647  177.015430602555 0.00208389365931769 75.6624795364064 0.00208389365931771 75.6624795364061 0.998061669672246 177.015798636721 
15.35512                       0.998052979890201 177.015231040109 0.00208732174508812 75.6456329340201 0.00208732174508815 75.6456329340197 0.99806038894497 177.015598897686 
15.35516                       0.998051693034405 177.015030910956 0.00209076088743031 75.6287312432248 0.00209076088743034 75.6287312432245 0.998059102134596 177.015398591361 
15.3552                        0.998050400058671 177.014830212616 0.00209421113897651 75.6117741958079 0.00209421113897654 75.6117741958076 0.998057809202469 177.01519771526  
15.35524                       0.998049100924052 177.01462894259  0.00209767255268715 75.5947615218333 0.00209767255268717 75.594761521833  0.998056510109624 177.014996266885 
15.35528                       0.998047795591295 177.014427098372 0.00210114518185382 75.577692949626  0.00210114518185384 75.5776929496257 0.99805520481679 177.014794243724 
15.35532                       0.998046484020838 177.014224677436 0.00210462908010156 75.5605682057587 0.00210462908010159 75.5605682057583 0.998053893284385 177.014591643251 
15.35536                       0.998045166172801 177.014021677246 0.00210812430139122 75.5433870150394 0.00210812430139125 75.5433870150391 0.998052575472512 177.014388462925 
15.3554                        0.998043842006989 177.013818095251 0.00211163090002254 75.5261491004948 0.00211163090002257 75.5261491004945 0.998051251340959 177.014184700193 
15.35544                       0.99804251148289 177.013613928886 0.00211514893063617 75.5088541833585 0.00211514893063619 75.5088541833582 0.998049920849192 177.013980352486 
15.35548                       0.998041174559669 177.013409175569 0.00211867844821686 75.4915019830543 0.00211867844821689 75.491501983054  0.998048583956354 177.013775417221 
15.35552                       0.998039831196159 177.013203832709 0.00212221950809551 75.4740922171844 0.00212221950809554 75.4740922171841 0.998047240621266 177.013569891802 
15.35556                       0.998038481350873 177.012997897696 0.00212577216595261 75.4566246015112 0.00212577216595264 75.4566246015109 0.998045890802417 177.013363773618 
15.3556                        0.998037124981986 177.012791367907 0.00212933647782029 75.4390988499453 0.00212933647782032 75.439098849945  0.998044534457963 177.013157060042 
15.35564                       0.998035762047342 177.012584240705 0.00213291250008518 75.4215146745305 0.00213291250008521 75.4215146745302 0.998043171545729 177.012949748434 
15.35568                       0.998034392504444 177.012376513438 0.00213650028949132 75.4038717854274 0.00213650028949134 75.4038717854271 0.998041802023197 177.01274183614  
15.35572                       0.998033016310455 177.012168183439 0.00214009990314278 75.3861698908991 0.0021400999031428 75.3861698908987 0.99804042584751 177.012533320488 
15.35576                       0.99803163342219 177.011959248026 0.00214371139850676 75.3684086972945 0.00214371139850678 75.3684086972942 0.998039042975463 177.012324198795 
15.3558                        0.998030243796123 177.011749704503 0.00214733483341597 75.3505879090348 0.00214733483341599 75.3505879090344 0.998037653363508 177.01211446836  
15.35584                       0.99802884738837 177.011539550157 0.00215097026607177 75.3327072285966 0.00215097026607179 75.3327072285962 0.998036256967742 177.011904126468 
15.35588                       0.998027444154695 177.011328782262 0.00215461775504697 75.3147663564961 0.00215461775504699 75.3147663564958 0.998034853743905 177.01169317039  
15.35592                       0.998026034050506 177.011117398075 0.00215827735928876 75.2967649912734 0.00215827735928878 75.2967649912731 0.998033443647384 177.011481597381 
15.35596                       0.998024617030842 177.010905394838 0.0021619491381216 75.2787028294765 0.00216194913812162 75.2787028294761 0.998032026633205 177.011269404678 
15.356                         0.998023193050387 177.01069276978  0.00216563315125028 75.2605795656441 0.0021656331512503 75.2605795656438 0.998030602656019 177.011056589507 
15.35604                       0.998021762063449 177.010479520111 0.00216932945876259 75.2423948922915 0.00216932945876261 75.2423948922912 0.998029171670115 177.010843149075 
15.35608                       0.998020324023968 177.010265643027 0.00217303812113277 75.2241484998908 0.00217303812113279 75.2241484998905 0.998027733629414 177.010629080576 
15.35612                       0.998018878885504 177.010051135708 0.00217675919922429 75.2058400768564 0.00217675919922432 75.2058400768561 0.998026288487453 177.010414381185 
15.35616                       0.998017426601244 177.009835995318 0.00218049275429304 75.1874693095271 0.00218049275429306 75.1874693095268 0.998024836197393 177.010199048064 
15.3562                        0.998015967123986 177.009620219006 0.00218423884799007 75.1690358821503 0.00218423884799009 75.16903588215   0.998023376712013 177.009983078359 
15.35624                       0.998014500406145 177.009403803904 0.00218799754236529 75.1505394768627 0.00218799754236531 75.1505394768624 0.998021909983703 177.009766469197 
15.35628                       0.998013026399742 177.009186747128 0.00219176889987027 75.1319797736742 0.00219176889987029 75.1319797736739 0.998020435964461 177.009549217691 
15.35632                       0.998011545056407 177.008969045777 0.00219555298336127 75.1133564504509 0.00219555298336129 75.1133564504506 0.998018954605894 177.009331320939 
15.35636                       0.998010056327371 177.008750696935 0.00219934985610297 75.0946691828953 0.00219934985610299 75.094669182895  0.998017465859209 177.00911277602  
15.3564                        0.998008560163462 177.00853169767  0.00220315958177106 75.075917644531  0.00220315958177108 75.0759176445307 0.998015969675209 177.008893579998 
15.35644                       0.998007056515102 177.008312045031 0.00220698222445618 75.0571015066816 0.0022069822244562 75.0571015066813 0.998014466004293 177.008673729921 
15.35648                       0.998005545332305 177.008091736053 0.00221081784866656 75.0382204384555 0.00221081784866658 75.0382204384552 0.998012954796449 177.008453222817 
15.35652                       0.998004026564667 177.007870767753 0.00221466651933201 75.0192741067247 0.00221466651933203 75.0192741067244 0.99801143600125 177.008232055702 
15.35656                       0.998002500161374 177.00764913713  0.0022185283018067 75.000262176108  0.00221852830180672 75.0002621761077 0.998009909567855 177.008010225571 
15.3566                        0.998000966071177 177.007426841168 0.00222240326187281 74.981184308952  0.00222240326187283 74.9811843089517 0.998008375444994 177.007787729405 