! Touchstone file exported from HFSS 2024.2.0
!        File:           C:/Users/peter/Documents/Ansoft/Maybell_cavity/KatosRWG2CWGTransitions.aedt
!        Generated:      03:58:12 PM Jun 27, 2025
!        Design:         CWGII2RWG
!        Project:        KratosRWG2CWGTransitions
!        Setup:          Setup1
!        Solution:       Sweep
!
! Variables:
!        a = 0.3in
!        d = 2.99in
!        iris_radius = 0.0705in
!        iris_width = 0.04in
!        rwg_a = 0.622in
!        rwg_b = 0.311in
!        rwg_length = 0.3in
!
!Data is not renormalized
# GHz S RI
! Terminal data exported
! Port[1] = Port1_rwg
! Port[2] = Port2_cwg
10                             -0.9994098108    0.01262124174    0.004243613971   0.004080600772   0.004243613971   0.004080600772   -0.9837330748    -0.0007207001652 
10.045                         -0.9993917912    0.01317230722    0.004308529778   0.004140819707   0.004308529778   0.004140819707   -0.9839487562    -0.0007145010695 
10.09                          -0.9993711868    0.01370656036    0.004365754715   0.004195549071   0.004365754715   0.004195549071   -0.9841721335    -0.0007055245456 
10.135                         -0.9993496182    0.01422436055    0.004416487171   0.004244800815   0.004416487171   0.004244800815   -0.9844019436    -0.0006939442372 
10.18                          -0.9993279524    0.01472674047    0.004461475371   0.004288662609   0.004461475371   0.004288662609   -0.9846372097    -0.0006802151168 
10.225                         -0.9993066156    0.01521495357    0.004501188771   0.004327267431   0.004501188771   0.004327267431   -0.9848772938    -0.000664987057  
10.27                          -0.9992857818    0.01569025914    0.004535921228   0.004360774036   0.004535921228   0.004360774036   -0.9851219256    -0.0006490042845 
10.315                         -0.9992654864    0.01615382796    0.004565855491   0.004389352803   0.004565855491   0.004389352803   -0.9853712032    -0.0006329966509 
10.36                          -0.9992456941    0.01660670856    0.004591104446   0.004413174093   0.004591104446   0.004413174093   -0.9856255594    -0.0006175712626 
10.405                         -0.9992263373    0.01704982266    0.004611737469   0.00443239763    0.004611737469   0.00443239763    -0.9858856933    -0.0006031157574 
10.45                          -0.9992073395    0.01748397399    0.004627796521   0.004447162174   0.004627796521   0.004447162174   -0.9861524661    -0.0005897270403 
10.495                         -0.9991886261    0.01790986198    0.004639304568   0.004457575272   0.004639304568   0.004457575272   -0.9864267699    -0.0005771809932 
10.54                          -0.999170131     0.01832809639    0.004646267791   0.004463703184   0.004646267791   0.004463703184   -0.9867093821    -0.0005649586428 
10.585                         -0.9991517978    0.01873921099    0.004648672421   0.004465561397   0.004648672421   0.004465561397   -0.9870008286    -0.0005523411644 
10.63                          -0.9991335801    0.01914367522    0.004646476803   0.004463106363   0.004646476803   0.004463106363   -0.9873012895    -0.0005385781542 
10.675                         -0.9991154387    0.01954190321    0.004639599274   0.004456229246   0.004639599274   0.004456229246   -0.9876105886    -0.0005231187006 
10.72                          -0.9990973379    0.01993425786    0.004627902686   0.004444752567   0.004627902686   0.004444752567   -0.9879283133    -0.0005058708741 
10.765                         -0.9990792399    0.02032104027    0.004611176832   0.004428430461   0.004611176832   0.004428430461   -0.9882541039    -0.0004874213719 
10.81                          -0.9990611366    0.02070242844    0.004589120635   0.004406952775   0.004589120635   0.004406952775   -0.9885881219    -0.0004691055766 
10.855                         -0.9990433984    0.02107852235    0.00456132659    0.00437995214    0.00456132659    0.00437995214    -0.9889316398    -0.0004527791724 
10.9                           -0.9990262814    0.0214504384     0.004527270374   0.004347011147   0.004527270374   0.004347011147   -0.9892875759    -0.0004401309019 
10.945                         -0.9990087992    0.02181830098    0.004486308134   0.004307663471   0.004486308134   0.004307663471   -0.9896606162    -0.0004314441155 
10.99                          -0.9989911874    0.02218180987    0.004437681634   0.004261377783   0.004437681634   0.004261377783   -0.9900563394    -0.0004239560687 
11.035                         -0.998973653     0.02254121345    0.004380525121   0.004207506764   0.004380525121   0.004207506764   -0.9904786221    -0.0004105195855 
11.08                          -0.9989562584    0.02289676993    0.004313854081   0.004145176582   0.004313854081   0.004145176582   -0.9909248667    -0.0003802869631 
11.125                         -0.9989390352    0.0232487167     0.004236490247   0.00407308933    0.004236490247   0.00407308933    -0.9913800407    -0.0003245425602 
11.17                          -0.9989219984    0.02359729066    0.004146834723   0.00398922342    0.004146834723   0.00398922342    -0.9918145434    -0.0002516077341 
11.215                         -0.998905132     0.02394273494    0.004042345438   0.003890468782   0.004042345438   0.003890468782   -0.9921990462    -0.0002110620938 
11.26                          -0.9988883655    0.02428528251    0.003918546283   0.003772364895   0.003918546283   0.003772364895   -0.9925590528    -0.0003086275674 
11.305                         -0.9988715669    0.02462510585    0.003767557799   0.003629331016   0.003767557799   0.003629331016   -0.9930765888    -0.0006388945059 
11.35                          -0.9988546022    0.02496224767    0.003576993258   0.003455710283   0.003576993258   0.003455710283   -0.9940912957    -0.0009852849119 
11.395                         -0.9988375164    0.02529661716    0.003332275074   0.003244698319   0.003332275074   0.003244698319   -0.9952728016    -0.000433400692  
11.44                          -0.9988208686    0.02562834331    0.003020663828   0.002960205694   0.003020663828   0.002960205694   -0.9932198808    -0.0002490721687 
11.485                         -0.9988048082    0.02595958704    0.002468163242   0.002387613      0.002468163242   0.002387613      -1.00008793      -0.01683984699   
11.53                          -0.9987843389    0.02628919344    0.0005720442048  0.002494042658   0.0005720442048  0.002494042658   -0.9831469806    0.01070496281    
11.575                         -0.9987636445    0.02661263661    0.0002048525774  0.003851982808   0.0002048525774  0.003851982808   -0.9980215086    0.006865490746   
11.62                          -0.9987443716    0.02693313734    0.0001944370546  0.004511348981   0.0001944370546  0.004511348981   -0.9979353387    0.004091296455   
11.665                         -0.9987256993    0.02725145653    0.0001885148367  0.004992347109   0.0001885148367  0.004992347109   -0.9994876194    0.00496350375    
11.71                          -0.9987073304    0.02756769761    0.0001912765375  0.005385557426   0.0001912765375  0.005385557426   -0.9995940207    0.006187667243   
11.755                         -0.9986891581    0.02788192655    0.0001977679785  0.005722535046   0.0001977679785  0.005722535046   -0.9994230145    0.006898595482   
11.8                           -0.9986711312    0.0281942125     0.0002051685352  0.006021246321   0.0002051685352  0.006021246321   -0.9993805866    0.007409470479   
11.845                         -0.998653219     0.02850462487    0.0002126653178  0.006292577857   0.0002126653178  0.006292577857   -0.9994244624    0.007917801581   
11.89                          -0.9986354002    0.02881323073    0.0002201546503  0.006543308125   0.0002201546503  0.006543308125   -0.9994718948    0.008451791217   
11.935                         -0.9986176589    0.02912009406    0.0002276724031  0.006777864055   0.0002276724031  0.006777864055   -0.9994904067    0.008985667755   
11.98                          -0.9985999828    0.02942527574    0.0002352406161  0.006999305712   0.0002352406161  0.006999305712   -0.9994821034    0.00949689692    
12.025                         -0.9985823621    0.0297288337     0.0002428531335  0.007209861609   0.0002428531335  0.007209861609   -0.9994595438    0.009977604616   
12.07                          -0.9985647887    0.0300308232     0.0002504903441  0.007411222964   0.0002504903441  0.007411222964   -0.9994334191    0.01042996285    
12.115                         -0.9985472561    0.03033129702    0.0002581318515  0.007604712465   0.0002581318515  0.007604712465   -0.999409407     0.01085993067    
12.16                          -0.9985297584    0.03063030566    0.0002657624643  0.007791387157   0.0002657624643  0.007791387157   -0.9993890838    0.01127337681    
12.205                         -0.998512291     0.03092789749    0.0002733734809  0.007972105439   0.0002733734809  0.007972105439   -0.99937177      0.011674555      
12.25                          -0.9984948494    0.0312241189     0.0002809617009  0.008147573329   0.0002809617009  0.008147573329   -0.9993560268    0.01206597263    
12.295                         -0.9984774301    0.03151901442    0.0002885277469  0.008318377864   0.0002885277469  0.008318377864   -0.9993405251    0.01244883544    
12.34                          -0.9984600295    0.03181262681    0.0002960744775  0.008485011997   0.0002960744775  0.008485011997   -0.9993243977    0.01282359219    
12.385                         -0.9984426447    0.03210499719    0.0003036057805  0.00864789351    0.0003036057805  0.00864789351    -0.999307275     0.01319037132    
12.43                          -0.9984252728    0.03239616508    0.0003111257762  0.008807379598   0.0003111257762  0.008807379598   -0.9992891713    0.01354925758    
12.475                         -0.9984079111    0.03268616852    0.0003186383617  0.008963778202   0.0003186383617  0.008963778202   -0.9992703316    0.01390042873    
12.52                          -0.9983905574    0.03297504416    0.0003261469989  0.009117356881   0.0003261469989  0.009117356881   -0.9992510944    0.01424419472    
12.565                         -0.9983732093    0.03326282728    0.0003336546582  0.009268349808   0.0003336546582  0.009268349808   -0.9992317934    0.01458098081    
12.61                          -0.9983558647    0.03354955191    0.0003411638514  0.009416963319   0.0003411638514  0.009416963319   -0.9992127003    0.01491128612    
12.655                         -0.9983385216    0.03383525087    0.0003486767059  0.00956338034    0.0003486767059  0.00956338034    -0.9991940005    0.01523563781    
12.7                           -0.9983211781    0.03411995582    0.0003561950507  0.009707763956   0.0003561950507  0.009707763956   -0.9991757923    0.01555455196    
12.745                         -0.9983038324    0.03440369733    0.000363720498   0.009850260296   0.000363720498   0.009850260296   -0.9991580999    0.01586850564    
12.79                          -0.9982864827    0.03468650496    0.0003712545113  0.009991000905   0.0003712545113  0.009991000905   -0.9991408927    0.01617792062    
12.835                         -0.9982691274    0.03496840725    0.000378798458   0.01013010468    0.000378798458   0.01013010468    -0.9991241055    0.0164831571     
12.88                          -0.998251765     0.03524943181    0.0003863536464  0.01026767952    0.0003863536464  0.01026767952    -0.9991076565    0.01678451496    
12.925                         -0.9982343938    0.03552960537    0.0003939213491  0.01040382364    0.0003939213491  0.01040382364    -0.9990914612    0.01708223991    
12.97                          -0.9982170123    0.03580895379    0.0004015028164  0.01053862676    0.0004015028164  0.01053862676    -0.9990754432    0.01737653225    
13.015                         -0.9981996193    0.03608750212    0.0004090992812  0.01067217107    0.0004090992812  0.01067217107    -0.9990595393    0.01766755655    
13.06                          -0.9981822133    0.03636527464    0.0004167119589  0.01080453209    0.0004167119589  0.01080453209    -0.9990437031    0.01795545102    
13.105                         -0.9981647929    0.03664229489    0.0004243420444  0.01093577936    0.0004243420444  0.01093577936    -0.9990279044    0.01824033568    
13.15                          -0.998147357     0.0369185857     0.0004319907063  0.01106597708    0.0004319907063  0.01106597708    -0.9990121285    0.01852231909    
13.195                         -0.9981299041    0.03719416922    0.0004396590817  0.0111951847     0.0004396590817  0.0111951847     -0.9989963727    0.01880150345    
13.24                          -0.9981124332    0.03746906697    0.0004473482711  0.01132345733    0.0004473482711  0.01132345733    -0.9989806435    0.01907798809    
13.285                         -0.998094943     0.03774329984    0.0004550593338  0.01145084623    0.0004550593338  0.01145084623    -0.9989649537    0.01935187164    
13.33                          -0.9980774324    0.03801688813    0.0004627932848  0.01157739915    0.0004627932848  0.01157739915    -0.9989493189    0.01962325308    
13.375                         -0.9980599002    0.03828985158    0.0004705510931  0.01170316067    0.0004705510931  0.01170316067    -0.9989337554    0.01989223194    
13.42                          -0.9980423454    0.03856220939    0.0004783336809  0.01182817248    0.0004783336809  0.01182817248    -0.9989182781    0.02015890788    
13.465                         -0.9980247668    0.03883398024    0.0004861419243  0.01195247367    0.0004861419243  0.01195247367    -0.998902899     0.02042337988    
13.51                          -0.9980071635    0.0391051823     0.0004939766546  0.01207610091    0.0004939766546  0.01207610091    -0.9988876265    0.02068574532    
13.555                         -0.9979895343    0.0393758333     0.0005018386607  0.01219908872    0.0005018386607  0.01219908872    -0.9988724651    0.02094609896    
13.6                           -0.9979718783    0.03964595048    0.0005097286922  0.01232146962    0.0005097286922  0.01232146962    -0.998857415     0.02120453199    
13.645                         -0.9979541944    0.03991555064    0.0005176474626  0.0124432743     0.0005176474626  0.0124432743     -0.9988424727    0.02146113124    
13.69                          -0.9979364817    0.04018465017    0.000525595653   0.01256453177    0.000525595653   0.01256453177    -0.9988276314    0.02171597865    
13.735                         -0.9979187393    0.04045326507    0.0005335739159  0.01268526949    0.0005335739159  0.01268526949    -0.9988128819    0.02196915078    
13.78                          -0.9979009661    0.04072141092    0.0005415828789  0.01280551351    0.0005415828789  0.01280551351    -0.9987982132    0.02222071872    
13.825                         -0.9978831613    0.04098910295    0.0005496231481  0.01292528856    0.0005496231481  0.01292528856    -0.9987836129    0.02247074807    
13.87                          -0.9978653239    0.04125635602    0.000557695312   0.01304461814    0.000557695312   0.01304461814    -0.9987690687    0.02271929912    
13.915                         -0.997847453     0.04152318464    0.0005657999441  0.01316352464    0.0005657999441  0.01316352464    -0.998754568     0.0229664272     
13.96                          -0.9978295477    0.04178960301    0.000573937606   0.01328202938    0.000573937606   0.01328202938    -0.9987400996    0.02321218309    
14.005                         -0.9978116073    0.04205562498    0.0005821088498  0.01340015272    0.0005821088498  0.01340015272    -0.9987256531    0.02345661353    
14.05                          -0.9977936306    0.04232126412    0.0005903142206  0.01351791412    0.0005903142206  0.01351791412    -0.9987112197    0.0236997618     
14.095                         -0.997775617     0.04258653367    0.0005985542575  0.01363533217    0.0005985542575  0.01363533217    -0.9986967927    0.02394166824    
14.14                          -0.9977575656    0.04285144662    0.0006068294959  0.01375242468    0.0006068294959  0.01375242468    -0.9986823667    0.02418237086    
14.185                         -0.9977394755    0.04311601567    0.0006151404682  0.01386920873    0.0006151404682  0.01386920873    -0.9986679385    0.0244219058     
14.23                          -0.9977213459    0.04338025324    0.0006234877047  0.01398570069    0.0006234877047  0.01398570069    -0.9986535065    0.02466030789    
14.275                         -0.997703176     0.04364417151    0.0006318717344  0.01410191629    0.0006318717344  0.01410191629    -0.9986390706    0.02489761098    
14.32                          -0.9976849649    0.04390778241    0.0006402930851  0.01421787064    0.0006402930851  0.01421787064    -0.9986246322    0.02513384839    
14.365                         -0.9976667119    0.04417109764    0.0006487522837  0.01433357828    0.0006487522837  0.01433357828    -0.9986101937    0.02536905313    
14.41                          -0.9976484162    0.04443412866    0.0006572498563  0.01444905321    0.0006572498563  0.01444905321    -0.9985957583    0.02560325813    
14.455                         -0.9976300769    0.04469688672    0.0006657863278  0.01456430893    0.0006657863278  0.01456430893    -0.9985813297    0.02583649639    
14.5                           -0.9976116932    0.04495938284    0.000674362222   0.01467935845    0.000674362222   0.01467935845    -0.9985669119    0.02606880107    
14.545                         -0.9975932645    0.04522162784    0.000682978061   0.01479421434    0.000682978061   0.01479421434    -0.9985525089    0.02630020549    
14.59                          -0.9975747898    0.04548363236    0.0006916343651  0.01490888873    0.0006916343651  0.01490888873    -0.9985381244    0.0265307431     
14.635                         -0.9975562686    0.04574540683    0.0007003316523  0.01502339337    0.0007003316523  0.01502339337    -0.9985237616    0.02676044742    
14.68                          -0.9975376998    0.0460069615     0.0007090704379  0.01513773961    0.0007090704379  0.01513773961    -0.9985094231    0.0269893519     
14.725                         -0.9975190829    0.04626830644    0.0007178512343  0.01525193846    0.0007178512343  0.01525193846    -0.9984951105    0.02721748979    
14.77                          -0.9975004171    0.04652945154    0.0007266745506  0.0153660006     0.0007266745506  0.0153660006     -0.9984808248    0.02744489396    
14.815                         -0.9974817015    0.04679040655    0.0007355408924  0.01547993636    0.0007355408924  0.01547993636    -0.9984665656    0.02767159675    
14.86                          -0.9974629355    0.04705118104    0.0007444507616  0.0155937558     0.0007444507616  0.0155937558     -0.9984523319    0.02789762979    
14.905                         -0.9974441183    0.04731178442    0.0007534046563  0.01570746868    0.0007534046563  0.01570746868    -0.9984381214    0.02812302377    
14.95                          -0.9974252492    0.04757222597    0.0007624030706  0.01582108451    0.0007624030706  0.01582108451    -0.9984239312    0.02834780836    
14.995                         -0.9974063274    0.04783251481    0.000771446495   0.01593461254    0.000771446495   0.01593461254    -0.998409757     0.02857201197    
15.04                          -0.9973873522    0.04809265993    0.0007805354162  0.01604806176    0.0007805354162  0.01604806176    -0.9983955944    0.02879566169    
15.085                         -0.9973683228    0.04835267018    0.0007896703174  0.01616144097    0.0007896703174  0.01616144097    -0.9983814378    0.02901878311    
15.13                          -0.9973492385    0.04861255429    0.0007988516786  0.01627475873    0.0007988516786  0.01627475873    -0.9983672814    0.02924140029    
15.175                         -0.9973300986    0.04887232086    0.0008080799772  0.01638802342    0.0008080799772  0.01638802342    -0.9983531192    0.02946353566    
15.22                          -0.9973109023    0.04913197835    0.0008173556879  0.0165012432     0.0008173556879  0.0165012432     -0.9983389446    0.02968521002    
15.265                         -0.9972916489    0.04939153514    0.0008266792836  0.01661442609    0.0008266792836  0.01661442609    -0.9983247515    0.02990644249    
15.31                          -0.9972723377    0.04965099948    0.000836051236   0.01672757992    0.000836051236   0.01672757992    -0.9983105336    0.03012725059    
15.355                         -0.997252968     0.0499103795     0.0008454720159  0.01684071234    0.0008454720159  0.01684071234    -0.9982962852    0.03034765024    
15.4                           -0.9972335389    0.05016968324    0.000854942094   0.01695383089    0.000854942094   0.01695383089    -0.9982820009    0.03056765587    
15.445                         -0.9972140499    0.05042891864    0.0008644619417  0.01706694294    0.0008644619417  0.01706694294    -0.9982676762    0.0307872805     
15.49                          -0.9971945       0.05068809355    0.0008740320314  0.01718005573    0.0008740320314  0.01718005573    -0.998253307     0.03100653583    
15.535                         -0.9971748887    0.05094721569    0.0008836528379  0.01729317638    0.0008836528379  0.01729317638    -0.9982388904    0.03122543246    
15.58                          -0.9971552152    0.05120629274    0.0008933248381  0.01740631187    0.0008933248381  0.01740631187    -0.9982244241    0.03144397992    
15.625                         -0.9971354787    0.05146533225    0.0009030485129  0.01751946908    0.0009030485129  0.01751946908    -0.9982099072    0.03166218696    
15.67                          -0.9971156785    0.05172434172    0.0009128243466  0.01763265479    0.0009128243466  0.01763265479    -0.9981953395    0.03188006159    
15.715                         -0.9970958139    0.05198332855    0.0009226528288  0.01774587565    0.0009226528288  0.01774587565    -0.9981807221    0.03209761137    
15.76                          -0.9970758841    0.05224230006    0.000932534454   0.01785913824    0.000932534454   0.01785913824    -0.998166057     0.0323148435     
15.805                         -0.9970558883    0.05250126351    0.0009424697229  0.01797244904    0.0009424697229  0.01797244904    -0.9981513473    0.03253176504    
15.85                          -0.9970358259    0.05276022607    0.0009524591424  0.01808581443    0.0009524591424  0.01808581443    -0.998136597     0.03274838305    
15.895                         -0.9970156961    0.05301919486    0.0009625032265  0.01819924072    0.0009625032265  0.01819924072    -0.998121811     0.03296470477    
15.94                          -0.9969954981    0.05327817693    0.0009726024966  0.01831273413    0.0009726024966  0.01831273413    -0.9981069951    0.03318073776    
15.985                         -0.9969752312    0.05353717925    0.0009827574815  0.01842630082    0.0009827574815  0.01842630082    -0.9980921555    0.03339649005    
16.03                          -0.9969548946    0.05379620874    0.0009929687183  0.01853994687    0.0009929687183  0.01853994687    -0.9980772993    0.03361197025    
16.075                         -0.9969344876    0.05405527227    0.001003236752   0.01865367829    0.001003236752   0.01865367829    -0.9980624337    0.03382718763    
16.12                          -0.9969140093    0.05431437664    0.001013562137   0.01876750101    0.001013562137   0.01876750101    -0.9980475662    0.03404215228    
16.165                         -0.9968934592    0.0545735286     0.001023945434   0.01888142095    0.001023945434   0.01888142095    -0.9980327043    0.03425687508    
16.21                          -0.9968728362    0.05483273486    0.001034387213   0.0189954439     0.001034387213   0.0189954439     -0.9980178557    0.03447136783    
16.255                         -0.9968521398    0.05509200206    0.001044888055   0.01910957566    0.001044888055   0.01910957566    -0.9980030274    0.03468564323    
16.3                           -0.9968313691    0.0553513368     0.001055448544   0.01922382194    0.001055448544   0.01922382194    -0.9979882261    0.03489971487    
16.345                         -0.9968105234    0.05561074566    0.001066069276   0.01933818841    0.001066069276   0.01933818841    -0.9979734579    0.03511359728    
16.39                          -0.9967896017    0.05587023514    0.001076750852   0.01945268069    0.001076750852   0.01945268069    -0.997958728     0.03532730579    
16.435                         -0.9967686035    0.05612981173    0.001087493883   0.01956730436    0.001087493883   0.01956730436    -0.9979440406    0.03554085656    
16.48                          -0.9967475278    0.05638948186    0.001098298985   0.01968206495    0.001098298985   0.01968206495    -0.9979293987    0.03575426644    
16.525                         -0.996726374     0.05664925194    0.00110916678    0.01979696797    0.00110916678    0.01979696797    -0.9979148042    0.03596755291    
16.57                          -0.9967051411    0.05690912834    0.001120097896   0.01991201886    0.001120097896   0.01991201886    -0.9979002575    0.03618073393    
16.615                         -0.9966838284    0.05716911739    0.001131092967   0.02002722305    0.001131092967   0.02002722305    -0.9978857573    0.03639382785    
16.66                          -0.996662435     0.05742922541    0.001142152631   0.02014258594    0.001142152631   0.02014258594    -0.9978713008    0.03660685321    
16.705                         -0.9966409602    0.05768945868    0.001153277531   0.02025811289    0.001153277531   0.02025811289    -0.9978568837    0.03681982865    
16.75                          -0.9966194032    0.05794982345    0.001164468313   0.02037380923    0.001164468313   0.02037380923    -0.9978424996    0.0370327727     
16.795                         -0.9965977631    0.05821032595    0.001175725624   0.02048968029    0.001175725624   0.02048968029    -0.9978281407    0.03724570361    
16.84                          -0.996576039     0.0584709724     0.001187050117   0.02060573134    0.001187050117   0.02060573134    -0.9978137971    0.03745863922    
16.885                         -0.9965542303    0.05873176899    0.001198442443   0.02072196768    0.001198442443   0.02072196768    -0.9977994575    0.03767159674    
16.93                          -0.9965323359    0.05899272189    0.001209903257   0.02083839456    0.001209903257   0.02083839456    -0.9977851087    0.03788459261    
16.975                         -0.9965103552    0.05925383726    0.001221433213   0.02095501722    0.001221433213   0.02095501722    -0.997770736     0.03809764229    
17.02                          -0.9964882872    0.05951512124    0.001233032966   0.02107184091    0.001233032966   0.02107184091    -0.9977563233    0.03831076016    
17.065                         -0.996466131     0.05977657997    0.001244703172   0.02118887086    0.001244703172   0.02118887086    -0.9977418529    0.03852395933    
17.11                          -0.9964438859    0.06003821957    0.001256444484   0.02130611231    0.001256444484   0.02130611231    -0.9977273063    0.03873725152    
17.155                         -0.996421551     0.06030004616    0.001268257559   0.0214235705     0.001268257559   0.0214235705     -0.9977126637    0.03895064694    
17.2                           -0.9963991253    0.06056206584    0.00128014305    0.02154125066    0.00128014305    0.02154125066    -0.9976979047    0.0391641542     
17.245                         -0.9963766081    0.06082428473    0.001292101613   0.02165915805    0.001292101613   0.02165915805    -0.9976830085    0.03937778022    
17.29                          -0.9963539983    0.06108670892    0.001304133903   0.02177729794    0.001304133903   0.02177729794    -0.9976679537    0.03959153021    
17.335                         -0.9963312952    0.06134934454    0.001316240576   0.02189567561    0.001316240576   0.02189567561    -0.9976527193    0.03980540761    
17.38                          -0.9963084978    0.06161219767    0.00132842229    0.02201429637    0.00132842229    0.02201429637    -0.9976372845    0.04001941413    
17.425                         -0.9962856052    0.06187527445    0.001340679707   0.02213316556    0.001340679707   0.02213316556    -0.9976216291    0.04023354979    
17.47                          -0.9962626165    0.06213858097    0.001353013492   0.02225228854    0.001353013492   0.02225228854    -0.997605734     0.04044781298    
17.515                         -0.9962395308    0.06240212339    0.001365424315   0.02237167071    0.001365424315   0.02237167071    -0.9975895814    0.04066220058    
17.56                          -0.9962163471    0.06266590782    0.001377912855   0.02249131753    0.001377912855   0.02249131753    -0.9975731552    0.04087670817    
17.605                         -0.9961930645    0.06292994043    0.0013904798     0.02261123449    0.0013904798     0.02261123449    -0.9975564416    0.04109133012    
17.65                          -0.9961696819    0.06319422738    0.00140312585    0.02273142712    0.00140312585    0.02273142712    -0.9975394289    0.04130605993    
17.695                         -0.9961461985    0.06345877485    0.00141585172    0.02285190103    0.00141585172    0.02285190103    -0.9975221086    0.04152089046    
17.74                          -0.9961226132    0.06372358905    0.001428658141   0.02297266189    0.001428658141   0.02297266189    -0.9975044752    0.04173581427    
17.785                         -0.9960989251    0.0639886762     0.001441545868   0.02309371543    0.001441545868   0.02309371543    -0.9974865268    0.04195082401    