! Touchstone file exported from HFSS 2024.2.0
!        File:           C:/Users/peter/Documents/Ansoft/Maybell_cavity/KatosCavityFromMaybell.aedt
!        Generated:      09:14:43 AM Jun  4, 2025
!        Design:         LossyTransition
!        Project:        KatosCavityFromMaybell
!        Setup:          Setup1
!        Solution:       Sweep
!
! Variables:
!        $epsr = 5.5
!        $tandel = 0.003
!        a = 0.3in
!        d = 2.99in
!        f0_ideal = 15.3934197621267GHz
!        iris_radius = 0.07in
!        iris_width = 0.04in
!        rwg_a = 0.622in
!        rwg_b = 0.311in
!        rwg_length = 0.3in
!
!Data is not renormalized
# GHz S RI
! Terminal data exported
! Port[1] = Port1
! Port[2] = Port2
10                             -0.999415925128323 0.0123535086977263 0.00411840643432955 0.00396027639450663 0.00411840643432955 0.00396027639450662 -0.98408365028031 -0.000720557484534917 
10.045                         -0.999398172071133 0.0128926273178318 0.00418136104317774 0.00401871416631279 0.00418136104317228 0.00401871416631441 -0.984294731229217 -0.000714330881119577 
10.09                          -0.999377857421606 0.013415437063458 0.0042368378082345 0.00407181840080814 0.00423683780822851 0.00407181840081051 -0.984513415404827 -0.000705331156999955 
10.135                         -0.999356585114775 0.0139222023932237 0.00428600730878459 0.00411960452087391 0.00428600730877996 0.00411960452087624 -0.984738434427198 -0.000693730951700524 
10.18                          -0.999335215788837 0.014413888349071 0.00432959968197808 0.00416215899252625 0.00432959968197528 0.00416215899252802 -0.984968805903526 -0.000679984622658098 
10.225                         -0.999314174333322 0.0148916993046563 0.00436807257231404 0.00419961116131847 0.00436807257231276 0.00419961116131946 -0.985203885796399 -0.000664741786430842 
10.27                          -0.999293636017893 0.0153568581383912 0.00440171211260315 0.00423211494566519 0.00440171211260295 0.00423211494566537 -0.985443397640805 -0.000648746721044688 
10.315                         -0.999273638501386 0.015810508012109 0.00443069598959039 0.00425983541640974 0.00443069598959078 0.00425983541640927 -0.985687432870255 -0.000632729564308333 
10.36                          -0.999254148524064 0.0162536759403991 0.00445513374977129 0.00428293765191303 0.00445513374977189 0.00428293765191218 -0.985936417635309 -0.000617297854942959 
10.405                         -0.999235100905651 0.0166872665494599 0.00447509254721019 0.00430157649853569 0.00447509254721068 0.0043015764985347 -0.986191043717743 -0.000602839710308559 
10.45                          -0.999216420673098 0.0171120696345491 0.00449061287364086 0.00431588657610588 0.00449061287364118 0.00431588657610502 -0.98645216479516 -0.000589452461006604 
10.495                         -0.999198034977677 0.0175287731284194 0.00450171680756046 0.00432597232212835 0.00450171680756059 0.00432597232212778 -0.986720664699565 -0.000576912271710129 
10.54                          -0.999179878884609 0.0179379773279157 0.00450841020588832 0.00433189819940605 0.00450841020588832 0.00433189819940587 -0.986997311615578 -0.000564700246323808 
10.585                         -0.999161897485363 0.0183402084725754 0.00451067966787471 0.00433367946023388 0.00451067966787471 0.00433367946023408 -0.987282621230208 -0.000552097412769327 
10.63                          -0.999144045642446 0.0187359309722195 0.00450848484680509 0.00433127408506456 0.00450848484680519 0.00433127408506505 -0.987576761879154 -0.000538353037173252 
10.675                         -0.999126285500366 0.0191255582403654 0.00450174668764497 0.00432457668056694 0.0045017466876452 0.00432457668056756 -0.987879543782511 -0.000522915810001027 
10.72                          -0.999108579071854 0.0195094621410991 0.00449033239210941 0.00431341518308798 0.00449033239210975 0.00431341518308857 -0.988190538670185 -0.000505693523847486 
10.765                         -0.999090859863197 0.0198879744642209 0.00447403833469161 0.00429755107712695 0.00447403833469197 0.00429755107712736 -0.988509368748661 -0.000487272963021559 
10.81                          -0.999072929643554 0.0202612335742375 0.00445257273214721 0.00427668335469831 0.00445257273214744 0.00427668335469848 -0.988836174482558 -0.00046899021085128 
10.855                         -0.999055650156612 0.0206289151054952 0.00442554049367987 0.00425045538466903 0.0044255404936798 0.00425045538466898 -0.989172204322714 -0.000452702433456197 
10.9                           -0.999038722364539 0.0209930129802068 0.0043924330849699 0.00421846191818882 0.00439243308496941 0.00421846191818868 -0.989520349641842 -0.000440100582783018 
10.945                         -0.999021465603086 0.0213527272953222 0.00435262586302454 0.00418025024565765 0.00435262586302364 0.0041802502456576 -0.989885265352627 -0.000431470512065607 
10.99                          -0.999004238913312 0.0217082219407241 0.00430538308073102 0.00413530470110107 0.0043053830807299 0.00413530470110127 -0.990272494542579 -0.000424051330690424 
11.035                         -0.998987112469905 0.0220597529990826 0.00424986463239488 0.00408299731224781 0.00424986463239385 0.00408299731224831 -0.990685871038262 -0.000410695673907351 
11.08                          -0.998970119080727 0.0224075444427878 0.0041851153376425 0.00402248065120456 0.00418511533764194 0.0040224806512051 -0.991122742293333 -0.000380552291874069 
11.125                         -0.998953283808084 0.0227518128973067 0.00410999249170754 0.00395249612365679 0.00410999249170759 0.00395249612365679 -0.991568001467966 -0.000324898833082524 
11.17                          -0.998936619644188 0.0230927799251278 0.00402294610681762 0.00387108298647496 0.00402294610681795 0.00387108298647365 -0.991991941971128 -0.000252051205526063 
11.215                         -0.998920111554765 0.023430674003236 0.00392151214223384 0.0037752237291565 0.00392151214223332 0.00377522372915338 -0.992365086572131 -0.000211596918241597 
11.26                          -0.998903695533516 0.0237657139453225 0.00380135072145037 0.00366058882064585 0.00380135072144742 0.00366058882064152 -0.992712741806316 -0.000309298771970845 
11.305                         -0.998887253448799 0.0240980633067689 0.00365481873667597 0.00352175929469059 0.00365481873666974 0.00352175929468739 -0.993216702482992 -0.000639830260660239 
11.35                          -0.998870667442273 0.0244277688544398 0.00346989527250231 0.0033532417778656 0.00346989527249529 0.00335324177786639 -0.994216354445913 -0.000986673627196549 
11.395                         -0.998853984481876 0.0247547589819451 0.00323242886921223 0.00314843952913434 0.00323242886921052 0.0031484395291362 -0.995380832405643 -0.000435235868191068 
11.44                          -0.998837722279562 0.0250791735289779 0.00293007793821826 0.00287236933324023 0.00293007793821528 0.00287236933322764 -0.993306962895191 -0.000250930145411261 
11.485                         -0.998821990730201 0.0254030315011493 0.00239418228588246 0.0023167390747336 0.00239418228583223 0.00231673907474315 -1.00014487078842 -0.0168444239125816 
11.53                          -0.998802143663265 0.0257252359432977 0.000554475390949497 0.00241957910421209 0.00055447539097572 0.00241957910421237 -0.983160301072929 0.0106779764336215 
11.575                         -0.9987820797661 0.0260415648522329 0.000197968637842425 0.00373683698046646 0.000197968637847296 0.0037368369804757 -0.998027055582214 0.00679521899274799 
11.62                          -0.998763357428042 0.0263550310080566 0.000187653822891378 0.00437646871376862 0.00018765382289696 0.00437646871376873 -0.99793963100415 0.00399661332005591 
11.665                         -0.998745205834453 0.0266663585201496 0.00018174444961851 0.00484305042806322 0.000181744449619377 0.00484305042806244 -0.999491247615063 0.00484831136183478 
11.71                          -0.998727344206107 0.0269756479327824 0.000184271433448655 0.00522445996871997 0.000184271433448421 0.00522445996872067 -0.999597758678845 0.00605503704514854 
11.755                         -0.998709671792731 0.027282963950665 0.000190423810880215 0.00555131518479094 0.000190423810880392 0.00555131518479214 -0.999426929969202 0.00675067257328665 
11.8                           -0.998692140532264 0.02758837434421 0.00019746424897544 0.0058410458044033 0.00019746424897598 0.00584104580440423 -0.999384622090448 0.00724763561549846 
11.845                         -0.998674721395226 0.0278919470417865 0.000204602800024035 0.00610421237526307 0.000204602800024592 0.00610421237526356 -0.999428618665651 0.00774303814514204 
11.89                          -0.998657394234238 0.0281937476974283 0.000211737490305723 0.00634739042302527 0.000211737490306102 0.00634739042302545 -0.999476211513019 0.00826488512617457 
11.935                         -0.99864014400467 0.0284938389380071 0.00021890202269979 0.00657487455761441 0.000218902022699955 0.00657487455761445 -0.999494924422073 0.00878728263696515 
11.98                          -0.998622959000052 0.0287922803319081 0.000226117022911134 0.00678963352538987 0.000226117022911135 0.00678963352538989 -0.999486848350651 0.00928760046665877 
12.025                         -0.998605829857098 0.0290891285827152 0.000233376020536186 0.00699382938899847 0.000233376020536104 0.00699382938899851 -0.999464528631943 0.00975788273611772 
12.07                          -0.998588748920894 0.0293844377617444 0.000240659656533902 0.00718910294418626 0.000240659656533792 0.00718910294418633 -0.999438648521354 0.0102002324718035 
12.115                         -0.998571709810853 0.029678259521827 0.00024794790648051 0.00737673742920254 0.000247947906480423 0.00737673742920261 -0.99941488280146 0.0106205523016397 
12.16                          -0.998554707112753 0.029970643280897 0.000255225850492851 0.00755775834579362 0.000255225850492787 0.00755775834579369 -0.999394808094448 0.0110246657487877 
12.205                         -0.99853773615563 0.0302616363780367 0.000262484896619982 0.00773299846776032 0.000262484896619949 0.00773299846776036 -0.99937774584793 0.011416790494168 
12.25                          -0.998520792847932 0.0305512842077044 0.000269721811099673 0.00790314272744557 0.000269721811099666 0.00790314272744558 -0.999362258458148 0.0117994048730173 
12.295                         -0.998503873555922 0.0308396303373855 0.000276937084210657 0.00806876063095765 0.000276937084210659 0.00806876063095761 -0.999347017414298 0.012173690722067 
12.34                          -0.998486975012599 0.0311267166126694 0.000284133389043759 0.00823033040581302 0.000284133389043762 0.00823033040581295 -0.999331155573749 0.0125400766235745 
12.385                         -0.998470094248838 0.031412583252575 0.000291314408755356 0.00838825735887297 0.000291314408755352 0.00838825735887288 -0.999314302861861 0.012898673569267 
12.43                          -0.998453228540834 0.0316972689371189 0.000298484063074276 0.00854288801864466 0.000298484063074259 0.00854288801864456 -0.999296473132575 0.0132495509925326 
12.475                         -0.99843637536958 0.0319808108884526 0.000305646064965266 0.00869452113016851 0.00030564606496524 0.0086945211301684 -0.999277910699217 0.0135928729995637 
12.52                          -0.998419532389306 0.0322632449465068 0.00031280371376807 0.00884341626424073 0.000312803713768036 0.00884341626424063 -0.999258953511556 0.01392893729498 
12.565                         -0.998402697402598 0.0325446056398207 0.000319959839749227 0.00898980060210504 0.000319959839749189 0.00898980060210494 -0.999239934977174 0.0142581581447263 
12.61                          -0.998385868340574 0.0328249262520156 0.000327116834558954 0.0091338743169409 0.000327116834558915 0.00913387431694082 -0.99922112646226 0.0145810247745428 
12.655                         -0.99836904324687 0.0331042388843158 0.000334276722198148 0.00927581487176391 0.000334276722198119 0.00927581487176385 -0.999202713194087 0.0148980554485858 
12.7                           -0.998352220264562 0.0333825745143897 0.000341441241771188 0.0094157804774302 0.000341441241771161 0.00941578047743015 -0.999184793457394 0.0152097582402079 
12.745                         -0.998335397625334 0.0336599630517887 0.000348611925631056 0.00955391289699753 0.000348611925631038 0.00955391289699751 -0.999167391549075 0.0155166029976844 
12.79                          -0.998318573640412 0.0339364333901721 0.000355790164929632 0.00969033973898275 0.000355790164929625 0.00969033973898274 -0.999150476955475 0.0158190049816771 
12.835                         -0.998301746692852 0.0342120134565574 0.000362977259905872 0.00982517634873261 0.000362977259905882 0.00982517634873261 -0.99913398452168 0.0161173185169958 
12.88                          -0.998284915230942 0.0344867302577345 0.000370174455334643 0.00995852738172709 0.000370174455334672 0.00995852738172711 -0.999117832439176 0.0164118381474335 
12.925                         -0.998268077762472 0.0347606099240405 0.000377382963138556 0.0100904881232973 0.0003773829631386 0.0100904881232973 -0.999101936478199 0.0167028047044221 
12.97                          -0.998251232849719 0.0350336777506462 0.000384603974781657 0.0102211456045301 0.000384603974781715 0.0102211456045301 -0.999086220010708 0.0169904140323521 
13.015                         -0.99823437910501 0.0353059582364943 0.000391838666109271 0.0103505795529462 0.000391838666109342 0.0103505795529462 -0.999070620072896 0.0172748266131536 
13.06                          -0.998217515186792 0.0355774751210571 0.000399088197035088 0.0104788632080345 0.000399088197035166 0.0104788632080345 -0.999055090096992 0.0175561768539614 
13.105                         -0.998200639796083 0.0358482514190088 0.000406353708076147 0.0106060640252456 0.000406353708076239 0.0106060640252456 -0.999039600093877 0.0178345812667542 
13.15                          -0.998183751673307 0.0361183094529794 0.00041363631530173 0.0107322442871087 0.000413636315301826 0.0107322442871088 -0.999024135070818 0.0181101451437763 
13.195                         -0.998166849595414 0.0363876708844763 0.00042093710485111 0.0108574616363521 0.000420937104851217 0.0108574616363521 -0.999008692384733 0.0183829676111213 
13.24                          -0.998149932373262 0.0366563567431199 0.000428257127817492 0.0109817695429978 0.000428257127817598 0.0109817695429978 -0.998993278605149 0.0186531451325956 
13.285                         -0.998132998849249 0.0369243874542626 0.000435597396001153 0.0111052177151567 0.000435597396001258 0.0111052177151567 -0.998977906322913 0.0189207736521544 
13.33                          -0.998116047895131 0.037191782865124 0.000442958878804524 0.0112278524614974 0.000442958878804628 0.0112278524614975 -0.998962591209059 0.0191859496218107 
13.375                         -0.998099078410045 0.0374585622695269 0.000450342501369741 0.0113497170119934 0.000450342501369839 0.0113497170119934 -0.998947349513505 0.0194487701791582 
13.42                          -0.998082089318685 0.0377247444313033 0.000457749143936143 0.0114708518024657 0.000457749143936238 0.0114708518024657 -0.998932196099717 0.0197093327276331 
13.465                         -0.998065079569634 0.0379903476064872 0.000465179642314174 0.011591294727576 0.000465179642314261 0.011591294727576 -0.998917143039982 0.019967734144562 
13.51                          -0.998048048133839 0.0382553895643468 0.000472634789322305 0.0117110813662213 0.000472634789322383 0.0117110813662213 -0.998902198744693 0.0202240698050392 
13.555                         -0.998030994003188 0.0385198876073394 0.000480115337008514 0.011830245182717 0.000480115337008589 0.0118302451827171 -0.998887367565598 0.0204784325696291 
13.6                           -0.998013916189236 0.0387838585900465 0.000487621999471383 0.0119488177066835 0.000487621999471445 0.0119488177066835 -0.998872649793807 0.0207309118450758 
13.645                         -0.997996813721994 0.039047318937175 0.000495155456101111 0.0120668286941614 0.000495155456101171 0.0120668286941614 -0.998858041965394 0.0209815927918923 
13.69                          -0.997979685648841 0.0393102846606549 0.000502716355075363 0.0121843062721549 0.000502716355075415 0.0121843062721549 -0.998843537387927 0.0212305557224513 
13.735                         -0.997962531033514 0.039572771375912 0.000510305316963492 0.012301277068523 0.000510305316963535 0.012301277068523 -0.998829126807141 0.0214778757083886 
13.78                          -0.997945348955158 0.0398347943173489 0.000517922938314859 0.0124177663289003 0.000517922938314895 0.0124177663289003 -0.998814799142758 0.0217236223969262 
13.825                         -0.997928138507479 0.0400963683531025 0.000525569795129206 0.0125337980221281 0.00052556979512924 0.0125337980221281 -0.998800542234009 0.0219678600215265 
13.87                          -0.997910898797925 0.0403575079990973 0.000533246446128927 0.0126493949354951 0.000533246446128961 0.0126493949354952 -0.998786343547697 0.0222106475827184 
13.915                         -0.997893628946955 0.0406182274324629 0.000540953435773778 0.0127645787609356 0.000540953435773803 0.0127645787609356 -0.998772190813594 0.022452039169113 
13.96                          -0.997876328087338 0.04087854050433 0.000548691296977035 0.0128793701731963 0.000548691296977055 0.0128793701731963 -0.998758072563293 0.0226920843860224 
14.005                         -0.99785899536351 0.0411384607520616 0.00055646055349851 0.0129937889008661 0.000556460553498527 0.0129937889008662 -0.99874397855836 0.0229308288588313 
14.05                          -0.997841629930968 0.0413980014109265 0.000564261722003728 0.0131078537910569 0.00056426172200375 0.0131078537910569 -0.998729900102165 0.0231683147799077 
14.095                         -0.997824230955704 0.0416571754252874 0.000572095313790749 0.013221582868432 0.000572095313790761 0.013221582868432 -0.998715830236738 0.0234045814707535 
14.14                          -0.997806797613667 0.0419159954592836 0.000579961836194899 0.0133349933891988 0.00057996183619491 0.0133349933891988 -0.998701763831278 0.0236396659347907 
14.185                         -0.997789329090262 0.0421744739070695 0.000587861793689707 0.0134481018906065 0.000587861793689715 0.0134481018906065 -0.998687697573007 0.0238736033803333 
14.23                          -0.99777182457987 0.0424326229026305 0.000595795688708162 0.0135609242364313 0.000595795688708174 0.0135609242364313 -0.998673629873856 0.0241064276976989 
14.275                         -0.997754283285388 0.0426904543291764 0.00060376402221122 0.0136734756588692 0.000603764022211227 0.0136734756588692 -0.99865956070793 0.0243381718784986 
14.32                          -0.997736704417794 0.042947979828165 0.000611767294034625 0.0137857707972118 0.000611767294034636 0.0137857707972118 -0.998645491395529 0.0245688683693078 
14.365                         -0.997719087195734 0.04320521080795 0.000619806003045225 0.0138978237336314 0.000619806003045235 0.0138978237336314 -0.998631424349332 0.0247985493554155 
14.41                          -0.997701430845105 0.0434621584520958 0.000627880647138855 0.014009648026368 0.000627880647138862 0.014009648026368 -0.998617362797652 0.0250272469736146 
14.455                         -0.997683734598677 0.0437188337273549 0.000635991723110988 0.0141212567405699 0.000635991723110994 0.0141212567405699 -0.998603310498606 0.0252549934556489 
14.5                           -0.997665997695713 0.0439752473913353 0.000644139726430535 0.0142326624770154 0.000644139726430544 0.0142326624770154 -0.998589271457381 0.0254818212062439 
14.545                         -0.99764821938159 0.0442314099998754 0.000652325150945193 0.0143438773989111 0.000652325150945201 0.014343877398911 -0.998575249657329 0.0257077628213289 
14.59                          -0.997630398907453 0.0444873319141392 0.000660548488544405 0.0144549132569422 0.000660548488544419 0.0144549132569422 -0.99856124881356 0.0259328510533658 
14.635                         -0.997612535529851 0.044743023307437 0.000668810228804174 0.0145657814127273 0.000668810228804185 0.0145657814127273 -0.998547272156077 0.0261571187316558 
14.68                          -0.997594628510401 0.0449984941717962 0.000677110858634763 0.0146764928608124 0.000677110858634776 0.0146764928608124 -0.998533322247583 0.0263805986459159 
14.725                         -0.997576677115443 0.045253754324287 0.000685450861950055 0.0147870582493239 0.000685450861950064 0.0147870582493239 -0.998519400839386 0.0266033234016637 
14.77                          -0.997558680615713 0.0455088134131201 0.000693830719374053 0.0148974878993847 0.000693830719374068 0.0148974878993847 -0.998505508767252 0.0268253252558067 
14.815                         -0.997540638286003 0.0457636809235192 0.000702250907998266 0.0150077918233865 0.000702250907998275 0.0150077918233864 -0.998491645887618 0.0270466359405882 
14.86                          -0.997522549404856 0.0460183661833787 0.000710711901199886 0.0151179797422007 0.0007107119011999 0.0151179797422007 -0.998477811053297 0.0272672864834359 
14.905                         -0.99750441325423 0.0462728783687258 0.000719214168528991 0.0152280611014009 0.000719214168529006 0.0152280611014009 -0.998464002126702 0.0274873070296195 
14.95                          -0.997486229119196 0.0465272265089964 0.000727758175670637 0.0153380450865607 0.000727758175670652 0.0153380450865607 -0.998450216027724 0.0277067266739564 
14.995                         -0.997467996287625 0.0467814194921048 0.000736344384484404 0.0154479406376877 0.000736344384484416 0.0154479406376876 -0.998436448812683 0.0279255733067809 
15.04                          -0.997449714049882 0.0470354660693576 0.000744973253123561 0.0155577564628424 0.000744973253123572 0.0155577564628423 -0.99842269578015 0.0281438734787198 
15.085                         -0.997431381698534 0.047289374860197 0.000753645236232756 0.0156675010509926 0.000753645236232768 0.0156675010509926 -0.998408951599135 0.0283616522877593 
15.13                          -0.997412998528047 0.0475431543567639 0.00076236078522185 0.0157771826841434 0.000762360785221863 0.0157771826841434 -0.99839521045482 0.0285789332912891 
15.175                         -0.997394563834506 0.0477968129283332 0.000771120348612712 0.0158868094487835 0.000771120348612724 0.0158868094487835 -0.998381466206965 0.0287957384449654 
15.22                          -0.997376076915328 0.0480503588255803 0.000779924372453156 0.0159963892466828 0.000779924372453169 0.0159963892466827 -0.998367712556068 0.0290120880693243 
15.265                         -0.997357537068989 0.0483038001847187 0.000788773300792517 0.0161059298050753 0.000788773300792532 0.0161059298050753 -0.998353943212592 0.0292280008444567 
15.31                          -0.997338943594754 0.0485571450314948 0.000797667576211432 0.0162154386862585 0.000797667576211452 0.0162154386862585 -0.998340152064651 0.0294434938322563 
15.355                         -0.997320295792409 0.0488104012850568 0.000806607640397931 0.0163249232966374 0.000806607640397953 0.0163249232966373 -0.998326333340053 0.0296585825251495 
15.4                           -0.997301592962014 0.0490635767617009 0.000815593934761744 0.0164343908952414 0.000815593934761764 0.0164343908952414 -0.998312481758624 0.0298732809197316 
15.445                         -0.997282834403649 0.049316679178499 0.000824626901077911 0.0165438486017417 0.000824626901077932 0.0165438486017417 -0.998298592671615 0.030087601613202 
15.49                          -0.99726401941718 0.0495697161568062 0.000833706982150151 0.016653303403992 0.000833706982150178 0.016653303403992 -0.998284662184954 0.0303015559200806 
15.535                         -0.997245147302021 0.0498226952256686 0.000842834622485705 0.0167627621651185 0.000842834622485727 0.0167627621651185 -0.998270687263952 0.0305151540064981 
15.58                          -0.997226217356915 0.0500756238251286 0.000852010268971517 0.0168722316301826 0.000852010268971545 0.0168722316301826 -0.998256665817353 0.0307284050389429 
15.625                         -0.997207228879718 0.0503285093094262 0.000861234371543728 0.0169817184324398 0.000861234371543757 0.0169817184324398 -0.998242596759227 0.0309413173443813 
15.67                          -0.997188181167195 0.0505813589501049 0.000870507383840638 0.0170912290992153 0.000870507383840672 0.0170912290992153 -0.998228480047561 0.0311538985783589 
15.715                         -0.997169073514823 0.0508341799390368 0.000879829763831449 0.0172007700574211 0.000879829763831478 0.0172007700574211 -0.998214316699054 0.0313661558978322 
15.76                          -0.997149905216598 0.0510869793913591 0.000889201974412767 0.0173103476387342 0.000889201974412802 0.0173103476387343 -0.998200108779959 0.0315780961354615 
15.805                         -0.997130675564872 0.0513397643483263 0.000898624483965044 0.0174199680844596 0.000898624483965078 0.0174199680844596 -0.998185859373276 0.0317897259721076 
15.85                          -0.997111383850167 0.0515925417800841 0.000908097766862355 0.0175296375500954 0.000908097766862389 0.0175296375500954 -0.998171572523028 0.0320010521045032 
15.895                         -0.997092029361025 0.0518453185883812 0.000917622303929441 0.0176393621096257 0.000917622303929478 0.0176393621096257 -0.99815725315675 0.0322120814051816 
15.94                          -0.997072611383857 0.0520981016092044 0.000927198582840431 0.0177491477595578 0.000927198582840469 0.0177491477595579 -0.998142906987618 0.0324228210719928 
15.985                         -0.997053129202798 0.0523508976153435 0.000936827098454429 0.0178590004227271 0.000936827098454467 0.0178590004227272 -0.998128540397971 0.0326332787647377 
16.03                          -0.997033582099571 0.052603713318915 0.000946508353084586 0.0179689259518868 0.000946508353084622 0.0179689259518868 -0.998114160306268 0.0328434627267686 
16.075                         -0.997013969353363 0.0528565553737954 0.000956242856697058 0.0180789301331054 0.000956242856697096 0.0180789301331054 -0.998099774019755 0.0330533818896566 
16.12                          -0.996994290240717 0.0531094303780357 0.00096603112703831 0.0181890186889894 0.000966031127038343 0.0181890186889895 -0.998085389075219 0.0332630459593517 
16.165                         -0.996974544035409 0.0533623448762007 0.000975873689689095 0.018299197281751 0.000975873689689123 0.018299197281751 -0.998071013070545 0.033472465482568 
16.21                          -0.996954730008336 0.0536153053616592 0.000985771078045019 0.0184094715161394 0.000985771078045047 0.0184094715161394 -0.998056653489663 0.033681651892465 
16.255                         -0.996934847427434 0.0538683182788606 0.000995723833224607 0.0185198469422557 0.000995723833224625 0.0185198469422557 -0.998042317523778 0.0338906175330161 
16.3                           -0.996914895557585 0.054121390025531 0.00100573250390551 0.0186303290582672 0.00100573250390553 0.0186303290582672 -0.998028011891676 0.0340993756617481 
16.345                         -0.996894873660506 0.0543745269548497 0.00101579764609243 0.0187409233130406 0.00101579764609244 0.0187409233130406 -0.998013742661904 0.0343079404309456 
16.39                          -0.996874780994679 0.0546277353775954 0.00102591982281975 0.0188516351087111 0.00102591982281976 0.0188516351087111 -0.997999515079715 0.0345163268476596 
16.435                         -0.99685461681526 0.0548810215642546 0.00103609960379266 0.0189624698032029 0.00103609960379266 0.0189624698032028 -0.997985333401409 0.0347245507131157 
16.48                          -0.996834380373997 0.0551343917470896 0.00104633756497306 0.0190734327127193 0.00104633756497304 0.0190734327127192 -0.997971200738877 0.0349326285425957 
16.525                         -0.99681407091914 0.0553878521221983 0.00105663428811534 0.0191845291142165 0.00105663428811532 0.0191845291142165 -0.99795711891673 0.0351405774669028 
16.57                          -0.996793687695371 0.0556414088515447 0.00106699036026004 0.0192957642478771 0.00106699036026001 0.0192957642478771 -0.997943088344536 0.0353484151169951 
16.615                         -0.996773229943694 0.0558950680649537 0.00107740637319213 0.0194071433195969 0.00107740637319209 0.0194071433195969 -0.997929107906357 0.0355561594934564 
16.66                          -0.996752696901342 0.0561488358621041 0.00108788292287366 0.0195186715035  0.00108788292287361 0.0195186715035  -0.997915174869649 0.0357638288228176 
16.705                         -0.996732087801704 0.0564027183144988 0.00109842060885954 0.0196303539444942 0.00109842060885948 0.0196303539444942 -0.997901284815363 0.0359714414028416 
16.75                          -0.996711401874193 0.0566567214674127 0.00110902003370693 0.0197421957608801 0.00110902003370686 0.01974219576088 -0.997887431590946 0.0361790154391564 
16.795                         -0.996690638344128 0.0569108513418518 0.00111968180238947 0.019854202047024 0.00111968180238937 0.019854202047024 -0.997873607287588 0.0363865688757057 
16.84                          -0.996669796432622 0.0571651139364658 0.00113040652172737 0.0199663778761082 0.00113040652172727 0.0199663778761082 -0.997859802242927 0.0365941192216813 
16.885                         -0.996648875356435 0.0574195152294877 0.0011411947998467 0.0200787283029655 0.00114119479984658 0.0200787283029654 -0.997846005070141 0.0368016833776657 
16.93                          -0.996627874327812 0.0576740611806474 0.00115204724567992 0.0201912583670095 0.00115204724567979 0.0201912583670094 -0.997832202714063 0.0370092774638472 